<?xml version="1.0" encoding="ISO-8859-1"?>
<modeling>
 <generator>
  <i name="program" type="string">vasp </i>
  <i name="version" type="string">5.4.1  </i>
  <i name="subversion" type="string">05Feb16 (build Sep 02 2018 21:45:25) complex                          parallel </i>
  <i name="platform" type="string">IFC91_ompi </i>
  <i name="date" type="string">2019 08 16 </i>
  <i name="time" type="string">16:51:05 </i>
 </generator>
 <incar>
  <i type="string" name="SYSTEM"> diamond Si</i>
  <i type="int" name="ISTART">     0</i>
  <i type="string" name="PREC">normal</i>
  <i type="int" name="ICHARG">     2</i>
  <i name="ENCUT">    240.00000000</i>
  <i type="int" name="ISMEAR">     0</i>
  <i name="SIGMA">      0.10000000</i>
  <i type="logical" name="LORBIT"> F  </i>
  <v type="int" name="KPOINT_BSE">    -1     0     0     0</v>
 </incar>
 <kpoints>
  <generation param="Monkhorst-Pack">
   <v type="int" name="divisions">      11       11       11 </v>
   <v name="usershift">      0.00000000       0.00000000       0.00000000 </v>
   <v name="genvec1">      0.09090909       0.00000000       0.00000000 </v>
   <v name="genvec2">      0.00000000       0.09090909       0.00000000 </v>
   <v name="genvec3">      0.00000000       0.00000000       0.09090909 </v>
   <v name="shift">      0.00000000       0.00000000       0.00000000 </v>
  </generation>
  <varray name="kpointlist" >
   <v>       0.00000000       0.00000000       0.00000000 </v>
   <v>       0.09090909       0.00000000       0.00000000 </v>
   <v>       0.18181818       0.00000000       0.00000000 </v>
   <v>       0.27272727       0.00000000       0.00000000 </v>
   <v>       0.36363636       0.00000000       0.00000000 </v>
   <v>       0.45454545       0.00000000       0.00000000 </v>
   <v>       0.09090909       0.09090909       0.00000000 </v>
   <v>       0.18181818       0.09090909       0.00000000 </v>
   <v>       0.27272727       0.09090909       0.00000000 </v>
   <v>       0.36363636       0.09090909       0.00000000 </v>
   <v>       0.45454545       0.09090909       0.00000000 </v>
   <v>      -0.45454545       0.09090909       0.00000000 </v>
   <v>      -0.36363636       0.09090909       0.00000000 </v>
   <v>      -0.27272727       0.09090909       0.00000000 </v>
   <v>      -0.18181818       0.09090909       0.00000000 </v>
   <v>      -0.09090909       0.09090909       0.00000000 </v>
   <v>       0.18181818       0.18181818       0.00000000 </v>
   <v>       0.27272727       0.18181818       0.00000000 </v>
   <v>       0.36363636       0.18181818       0.00000000 </v>
   <v>       0.45454545       0.18181818       0.00000000 </v>
   <v>      -0.45454545       0.18181818       0.00000000 </v>
   <v>      -0.36363636       0.18181818       0.00000000 </v>
   <v>      -0.27272727       0.18181818       0.00000000 </v>
   <v>      -0.18181818       0.18181818       0.00000000 </v>
   <v>       0.27272727       0.27272727       0.00000000 </v>
   <v>       0.36363636       0.27272727       0.00000000 </v>
   <v>       0.45454545       0.27272727       0.00000000 </v>
   <v>      -0.45454545       0.27272727       0.00000000 </v>
   <v>      -0.36363636       0.27272727       0.00000000 </v>
   <v>      -0.27272727       0.27272727       0.00000000 </v>
   <v>       0.36363636       0.36363636       0.00000000 </v>
   <v>       0.45454545       0.36363636       0.00000000 </v>
   <v>      -0.45454545       0.36363636       0.00000000 </v>
   <v>      -0.36363636       0.36363636       0.00000000 </v>
   <v>       0.45454545       0.45454545       0.00000000 </v>
   <v>      -0.45454545       0.45454545       0.00000000 </v>
   <v>       0.27272727       0.18181818       0.09090909 </v>
   <v>       0.36363636       0.18181818       0.09090909 </v>
   <v>       0.45454545       0.18181818       0.09090909 </v>
   <v>      -0.45454545       0.18181818       0.09090909 </v>
   <v>       0.36363636       0.27272727       0.09090909 </v>
   <v>       0.45454545       0.27272727       0.09090909 </v>
   <v>      -0.45454545       0.27272727       0.09090909 </v>
   <v>      -0.36363636       0.27272727       0.09090909 </v>
   <v>      -0.27272727       0.27272727       0.09090909 </v>
   <v>      -0.18181818       0.27272727       0.09090909 </v>
   <v>       0.45454545       0.36363636       0.09090909 </v>
   <v>      -0.45454545       0.36363636       0.09090909 </v>
   <v>      -0.36363636       0.36363636       0.09090909 </v>
   <v>      -0.27272727       0.36363636       0.09090909 </v>
   <v>      -0.45454545       0.45454545       0.09090909 </v>
   <v>      -0.36363636       0.45454545       0.09090909 </v>
   <v>      -0.45454545       0.36363636       0.18181818 </v>
   <v>      -0.36363636       0.36363636       0.18181818 </v>
   <v>      -0.36363636       0.45454545       0.18181818 </v>
   <v>      -0.27272727       0.45454545       0.18181818 </v>
  </varray>
  <varray name="weights" >
   <v>       0.00075131 </v>
   <v>       0.00601052 </v>
   <v>       0.00601052 </v>
   <v>       0.00601052 </v>
   <v>       0.00601052 </v>
   <v>       0.00601052 </v>
   <v>       0.00450789 </v>
   <v>       0.01803156 </v>
   <v>       0.01803156 </v>
   <v>       0.01803156 </v>
   <v>       0.01803156 </v>
   <v>       0.01803156 </v>
   <v>       0.01803156 </v>
   <v>       0.01803156 </v>
   <v>       0.01803156 </v>
   <v>       0.00901578 </v>
   <v>       0.00450789 </v>
   <v>       0.01803156 </v>
   <v>       0.01803156 </v>
   <v>       0.01803156 </v>
   <v>       0.01803156 </v>
   <v>       0.01803156 </v>
   <v>       0.01803156 </v>
   <v>       0.00901578 </v>
   <v>       0.00450789 </v>
   <v>       0.01803156 </v>
   <v>       0.01803156 </v>
   <v>       0.01803156 </v>
   <v>       0.01803156 </v>
   <v>       0.00901578 </v>
   <v>       0.00450789 </v>
   <v>       0.01803156 </v>
   <v>       0.01803156 </v>
   <v>       0.00901578 </v>
   <v>       0.00450789 </v>
   <v>       0.00901578 </v>
   <v>       0.01803156 </v>
   <v>       0.03606311 </v>
   <v>       0.03606311 </v>
   <v>       0.03606311 </v>
   <v>       0.01803156 </v>
   <v>       0.03606311 </v>
   <v>       0.03606311 </v>
   <v>       0.03606311 </v>
   <v>       0.03606311 </v>
   <v>       0.01803156 </v>
   <v>       0.01803156 </v>
   <v>       0.03606311 </v>
   <v>       0.03606311 </v>
   <v>       0.01803156 </v>
   <v>       0.01803156 </v>
   <v>       0.01803156 </v>
   <v>       0.01803156 </v>
   <v>       0.03606311 </v>
   <v>       0.01803156 </v>
   <v>       0.01803156 </v>
  </varray>
 </kpoints>
 <parameters>
  <separator name="general" >
   <i type="string" name="SYSTEM">diamond Si</i>
   <i type="logical" name="LCOMPAT"> F  </i>
  </separator>
  <separator name="electronic" >
   <i type="string" name="PREC">normal</i>
   <i name="ENMAX">    240.00000000</i>
   <i name="ENAUG">    322.06900000</i>
   <i name="EDIFF">      0.00010000</i>
   <i type="int" name="IALGO">    38</i>
   <i type="int" name="IWAVPR">    10</i>
   <i type="int" name="NBANDS">    40</i>
   <i name="NELECT">      8.00000000</i>
   <i type="int" name="TURBO">     0</i>
   <i type="int" name="IRESTART">     0</i>
   <i type="int" name="NREBOOT">     0</i>
   <i type="int" name="NMIN">     0</i>
   <i name="EREF">      0.00000000</i>
   <separator name="electronic smearing" >
    <i type="int" name="ISMEAR">     0</i>
    <i name="SIGMA">      0.10000000</i>
    <i name="KSPACING">      0.50000000</i>
    <i type="logical" name="KGAMMA"> T  </i>
   </separator>
   <separator name="electronic projectors" >
    <i type="logical" name="LREAL"> F  </i>
    <v name="ROPT">      0.00000000</v>
    <i type="int" name="LMAXPAW">  -100</i>
    <i type="int" name="LMAXMIX">     2</i>
    <i type="logical" name="NLSPLINE"> F  </i>
   </separator>
   <separator name="electronic startup" >
    <i type="int" name="ISTART">     0</i>
    <i type="int" name="ICHARG">     2</i>
    <i type="int" name="INIWAV">     1</i>
   </separator>
   <separator name="electronic spin" >
    <i type="int" name="ISPIN">     1</i>
    <i type="logical" name="LNONCOLLINEAR"> F  </i>
    <v name="MAGMOM">      1.00000000      1.00000000</v>
    <i name="NUPDOWN">     -1.00000000</i>
    <i type="logical" name="LSORBIT"> F  </i>
    <v name="SAXIS">      0.00000000      0.00000000      1.00000000</v>
    <i type="logical" name="LSPIRAL"> F  </i>
    <v name="QSPIRAL">      0.00000000      0.00000000      0.00000000</v>
    <i type="logical" name="LZEROZ"> F  </i>
   </separator>
   <separator name="electronic exchange-correlation" >
    <i type="logical" name="LASPH"> F  </i>
    <i type="logical" name="LMETAGGA"> F  </i>
   </separator>
   <separator name="electronic convergence" >
    <i type="int" name="NELM">    60</i>
    <i type="int" name="NELMDL">    -5</i>
    <i type="int" name="NELMIN">     2</i>
    <i name="ENINI">    240.00000000</i>
    <separator name="electronic convergence detail" >
     <i type="logical" name="LDIAG"> T  </i>
     <i type="logical" name="LSUBROT"> F  </i>
     <i name="WEIMIN">      0.00000000</i>
     <i name="EBREAK">      0.00000063</i>
     <i name="DEPER">      0.30000000</i>
     <i type="int" name="NRMM">     4</i>
     <i name="TIME">      0.40000000</i>
    </separator>
   </separator>
   <separator name="electronic mixer" >
    <i name="AMIX">      0.40000000</i>
    <i name="BMIX">      1.00000000</i>
    <i name="AMIN">      0.10000000</i>
    <i name="AMIX_MAG">      1.60000000</i>
    <i name="BMIX_MAG">      1.00000000</i>
    <separator name="electronic mixer details" >
     <i type="int" name="IMIX">     4</i>
     <i type="logical" name="MIXFIRST"> F  </i>
     <i type="int" name="MAXMIX">   -45</i>
     <i name="WC">    100.00000000</i>
     <i type="int" name="INIMIX">     1</i>
     <i type="int" name="MIXPRE">     1</i>
     <i type="int" name="MREMOVE">     5</i>
    </separator>
   </separator>
   <separator name="electronic dipolcorrection" >
    <i type="logical" name="LDIPOL"> F  </i>
    <i type="logical" name="LMONO"> F  </i>
    <i type="int" name="IDIPOL">     0</i>
    <i name="EPSILON">      1.00000000</i>
    <v name="DIPOL">   -100.00000000   -100.00000000   -100.00000000</v>
    <i name="EFIELD">      0.00000000</i>
   </separator>
  </separator>
  <separator name="grids" >
   <i type="int" name="NGX">    16</i>
   <i type="int" name="NGY">    16</i>
   <i type="int" name="NGZ">    16</i>
   <i type="int" name="NGXF">    32</i>
   <i type="int" name="NGYF">    32</i>
   <i type="int" name="NGZF">    32</i>
   <i type="logical" name="ADDGRID"> F  </i>
  </separator>
  <separator name="ionic" >
   <i type="int" name="NSW">     0</i>
   <i type="int" name="IBRION">    -1</i>
   <i type="int" name="ISIF">     2</i>
   <i name="PSTRESS">      0.00000000</i>
   <i name="EDIFFG">      0.00100000</i>
   <i type="int" name="NFREE">     0</i>
   <i name="POTIM">      0.50000000</i>
   <i name="SMASS">     -3.00000000</i>
   <i name="SCALEE">      1.00000000</i>
  </separator>
  <separator name="ionic md" >
   <i name="TEBEG">      0.00010000</i>
   <i name="TEEND">      0.00010000</i>
   <i type="int" name="NBLOCK">     1</i>
   <i type="int" name="KBLOCK">     1</i>
   <i type="int" name="NPACO">   256</i>
   <i name="APACO">     16.00000000</i>
  </separator>
  <separator name="symmetry" >
   <i type="int" name="ISYM">     2</i>
   <i name="SYMPREC">      0.00001000</i>
  </separator>
  <separator name="dos" >
   <i type="logical" name="LORBIT"> F  </i>
   <v name="RWIGS">     -1.00000000</v>
   <i type="int" name="NEDOS">   301</i>
   <i name="EMIN">     10.00000000</i>
   <i name="EMAX">    -10.00000000</i>
   <i name="EFERMI">      0.00000000</i>
  </separator>
  <separator name="writing" >
   <i type="int" name="NWRITE">     2</i>
   <i type="logical" name="LWAVE"> T  </i>
   <i type="logical" name="LCHARG"> T  </i>
   <i type="logical" name="LPARD"> F  </i>
   <i type="logical" name="LVTOT"> F  </i>
   <i type="logical" name="LVHAR"> F  </i>
   <i type="logical" name="LELF"> F  </i>
   <i type="logical" name="LOPTICS"> F  </i>
   <v name="STM">      0.00000000      0.00000000      0.00000000      0.00000000      0.00000000      0.00000000      0.00000000</v>
  </separator>
  <separator name="performance" >
   <i type="int" name="NPAR">    40</i>
   <i type="int" name="NSIM">     4</i>
   <i type="int" name="NBLK">    -1</i>
   <i type="logical" name="LPLANE"> T  </i>
   <i type="logical" name="LSCALAPACK"> T  </i>
   <i type="logical" name="LSCAAWARE"> T  </i>
   <i type="logical" name="LSCALU"> F  </i>
   <i type="logical" name="LASYNC"> F  </i>
   <i type="logical" name="LORBITALREAL"> F  </i>
  </separator>
  <separator name="miscellaneous" >
   <i type="int" name="IDIOT">     3</i>
   <i type="logical" name="LMUSIC"> F  </i>
   <v name="POMASS">     28.08500000</v>
   <v name="DARWINR">      0.00000000</v>
   <v name="DARWINV">      1.00000000</v>
   <i type="logical" name="LCORR"> T  </i>
  </separator>
  <i type="logical" name="GGA_COMPAT"> T  </i>
  <i type="logical" name="LBERRY"> F  </i>
  <i type="int" name="ICORELEVEL">     0</i>
  <i type="logical" name="LDAU"> F  </i>
  <i type="int" name="I_CONSTRAINED_M">     0</i>
  <separator name="electronic exchange-correlation" >
   <i type="string" name="GGA">--</i>
   <i type="int" name="VOSKOWN">     0</i>
   <i type="logical" name="LHFCALC"> F  </i>
   <i type="string" name="PRECFOCK"></i>
   <i type="logical" name="LSYMGRAD"> F  </i>
   <i type="logical" name="LHFONE"> F  </i>
   <i type="logical" name="LRHFCALC"> F  </i>
   <i type="logical" name="LTHOMAS"> F  </i>
   <i type="logical" name="LMODELHF"> F  </i>
   <i name="ENCUT4O">     -1.00000000</i>
   <i type="int" name="EXXOEP">     0</i>
   <i type="int" name="FOURORBIT">     0</i>
   <i name="AEXX">      0.00000000</i>
   <i name="HFALPHA">      0.00000000</i>
   <i name="MCALPHA">      0.00000000</i>
   <i name="ALDAX">      1.00000000</i>
   <i name="AGGAX">      1.00000000</i>
   <i name="ALDAC">      1.00000000</i>
   <i name="AGGAC">      1.00000000</i>
   <i type="int" name="NKREDX">     1</i>
   <i type="int" name="NKREDY">     1</i>
   <i type="int" name="NKREDZ">     1</i>
   <i type="logical" name="SHIFTRED"> F  </i>
   <i type="logical" name="ODDONLY"> F  </i>
   <i type="logical" name="EVENONLY"> F  </i>
   <i type="int" name="LMAXFOCK">     0</i>
   <i type="int" name="NMAXFOCKAE">     0</i>
   <i type="logical" name="LFOCKAEDFT"> F  </i>
   <i name="HFSCREEN">      0.00000000</i>
   <i name="HFSCREENC">      0.00000000</i>
   <i type="int" name="NBANDSGWLOW">     0</i>
  </separator>
  <separator name="vdW DFT" >
   <i type="logical" name="LUSE_VDW"> F  </i>
   <i name="Zab_VDW">     -0.84910000</i>
   <i name="PARAM1">      0.12340000</i>
   <i name="PARAM2">      1.00000000</i>
   <i name="PARAM3">      0.00000000</i>
  </separator>
  <separator name="model GW" >
   <i type="int" name="MODEL_GW">     0</i>
   <i name="MODEL_EPS0">     12.26158974</i>
   <i name="MODEL_ALPHA">      1.00000000</i>
  </separator>
  <separator name="linear response parameters" >
   <i type="logical" name="LEPSILON"> F  </i>
   <i type="logical" name="LRPA"> F  </i>
   <i type="logical" name="LNABLA"> F  </i>
   <i type="logical" name="LVEL"> F  </i>
   <i type="int" name="KINTER">     0</i>
   <i name="CSHIFT">      0.10000000</i>
   <i name="OMEGAMAX">     -1.00000000</i>
   <i name="DEG_THRESHOLD">      0.00200000</i>
  </separator>
  <separator name="orbital magnetization" >
   <i type="logical" name="NUCIND"> F  </i>
   <v name="MAGPOS">      0.00000000      0.00000000      0.00000000</v>
   <i type="logical" name="LNICSALL"> T  </i>
   <i type="logical" name="ORBITALMAG"> F  </i>
   <i type="logical" name="LMAGBLOCH"> F  </i>
   <i type="logical" name="LCHIMAG"> F  </i>
   <i type="logical" name="LGAUGE"> T  </i>
   <i type="int" name="MAGATOM">     0</i>
   <v name="MAGDIPOL">      0.00000000      0.00000000      0.00000000</v>
   <v name="AVECCONST">      0.00000000      0.00000000      0.00000000</v>
  </separator>
  <separator name="response functions" >
   <i type="logical" name="LADDER"> F  </i>
   <i type="logical" name="LFXC"> F  </i>
   <i type="logical" name="LHARTREE"> T  </i>
   <i type="int" name="IBSE">     0</i>
   <v type="int" name="KPOINT">    -1     0     0     0</v>
   <i type="logical" name="LTCTE"> F  </i>
   <i type="logical" name="LTETE"> F  </i>
   <i type="logical" name="LTRIPLET"> F  </i>
   <i type="logical" name="LFXCEPS"> F  </i>
   <i type="logical" name="LFXHEG"> F  </i>
   <i type="int" name="NATURALO">     0</i>
   <i type="logical" name="L2ORDER"> F  </i>
   <i type="logical" name="LUSEW"> F  </i>
   <i name="ENCUTGW">     -2.00000000</i>
   <i name="ENCUTGWSOFT">     -2.00000000</i>
   <i name="ENCUTLF">     -1.00000000</i>
   <i type="int" name="LMAXMP2">    -1</i>
   <i name="SCISSOR">      0.00000000</i>
   <i type="int" name="NOMEGA">     0</i>
   <i type="int" name="NOMEGAR">     0</i>
   <i type="int" name="NBANDSGW">    -1</i>
   <i type="int" name="NBANDSO">    -1</i>
   <i type="int" name="NBANDSV">    -1</i>
   <i type="int" name="NELM">     1</i>
   <i type="int" name="NELMHF">     1</i>
   <i type="int" name="DIM">     3</i>
   <i type="int" name="ANTIRES">     0</i>
   <i name="OMEGAMAX">    -30.00000000</i>
   <i name="OMEGAMIN">    -30.00000000</i>
   <i name="OMEGATL">   -200.00000000</i>
   <i type="int" name="OMEGAGRID">     0</i>
   <i name="CSHIFT">     -0.10000000</i>
   <i type="logical" name="SELFENERGY"> F  </i>
   <i type="logical" name="LSPECTRAL"> F  </i>
   <i type="logical" name="LSPECTRALGW"> F  </i>
   <i type="logical" name="LSINGLES"> F  </i>
   <i type="logical" name="LFERMIGW"> F  </i>
   <i type="logical" name="ODDONLYGW"> F  </i>
   <i type="logical" name="EVENONLYGW"> F  </i>
   <i type="int" name="NKREDLFX">     1</i>
   <i type="int" name="NKREDLFY">     1</i>
   <i type="int" name="NKREDLFZ">     1</i>
   <i type="int" name="MAXMEM">  1800</i>
   <i type="int" name="TELESCOPE">     0</i>
   <i type="int" name="TAUPAR">     1</i>
   <i type="int" name="OMEGAPAR">    -1</i>
   <i name="LAMBDA">      1.00000000</i>
  </separator>
  <separator name="External order field" >
   <i name="OFIELD_KAPPA">      0.00000000</i>
   <v name="OFIELD_K">      0.00000000      0.00000000      0.00000000</v>
   <i name="OFIELD_Q6_NEAR">      0.00000000</i>
   <i name="OFIELD_Q6_FAR">      0.00000000</i>
   <i name="OFIELD_A">      0.00000000</i>
  </separator>
 </parameters>
 <atominfo>
  <atoms>       2 </atoms>
  <types>       1 </types>
  <array name="atoms" >
   <dimension dim="1">ion</dimension>
   <field type="string">element</field>
   <field type="int">atomtype</field>
   <set>
    <rc><c>Si</c><c>   1</c></rc>
    <rc><c>Si</c><c>   1</c></rc>
   </set>
  </array>
  <array name="atomtypes" >
   <dimension dim="1">type</dimension>
   <field type="int">atomspertype</field>
   <field type="string">element</field>
   <field>mass</field>
   <field>valence</field>
   <field type="string">pseudopotential</field>
   <set>
    <rc><c>   2</c><c>Si</c><c>     28.08500000</c><c>      4.00000000</c><c> PAW_PBE Si 05Jan2001                   </c></rc>
   </set>
  </array>
 </atominfo>
 <structure name="initialpos" >
  <crystal>
   <varray name="basis" >
    <v>       0.00000000       2.73400000       2.73400000 </v>
    <v>       2.73400000       0.00000000       2.73400000 </v>
    <v>       2.73400000       2.73400000       0.00000000 </v>
   </varray>
   <i name="volume">     40.87196581 </i>
   <varray name="rec_basis" >
    <v>      -0.18288222       0.18288222       0.18288222 </v>
    <v>       0.18288222      -0.18288222       0.18288222 </v>
    <v>       0.18288222       0.18288222      -0.18288222 </v>
   </varray>
  </crystal>
  <varray name="positions" >
   <v>       0.00000000       0.00000000       0.00000000 </v>
   <v>       0.25000000       0.25000000       0.25000000 </v>
  </varray>
 </structure>
 <calculation>
  <scstep>
   <time name="dav">    0.89    0.89</time>
   <time name="total">    0.90    0.91</time>
   <energy>
    <i name="alphaZ">      3.29449076 </i>
    <i name="ewald">   -226.97511711 </i>
    <i name="hartreedc">    -11.31730864 </i>
    <i name="XCdc">    -18.68357142 </i>
    <i name="pawpsdc">     65.95520812 </i>
    <i name="pawaedc">    -30.76852678 </i>
    <i name="eentropy">     -0.00000002 </i>
    <i name="bandstr">      2.33694880 </i>
    <i name="atom">    206.12155316 </i>
    <i name="e_fr_energy">    -10.03632315 </i>
    <i name="e_wo_entrp">    -10.03632312 </i>
    <i name="e_0_energy">    -10.03632313 </i>
   </energy>
  </scstep>
  <scstep>
   <time name="dav">    0.93    0.93</time>
   <time name="total">    0.93    0.94</time>
   <energy>
    <i name="e_fr_energy">    -10.99251309 </i>
    <i name="e_wo_entrp">    -10.99251309 </i>
    <i name="e_0_energy">    -10.99251309 </i>
   </energy>
  </scstep>
  <scstep>
   <time name="dav">    1.04    1.04</time>
   <time name="total">    1.04    1.04</time>
   <energy>
    <i name="e_fr_energy">    -10.99280289 </i>
    <i name="e_wo_entrp">    -10.99280289 </i>
    <i name="e_0_energy">    -10.99280289 </i>
   </energy>
  </scstep>
  <scstep>
   <time name="dav">    1.38    1.38</time>
   <time name="total">    1.38    1.38</time>
   <energy>
    <i name="e_fr_energy">    -10.99280292 </i>
    <i name="e_wo_entrp">    -10.99280292 </i>
    <i name="e_0_energy">    -10.99280292 </i>
   </energy>
  </scstep>
  <scstep>
   <time name="dav">    1.01    1.01</time>
   <time name="total">    1.02    1.02</time>
   <energy>
    <i name="e_fr_energy">    -10.99280292 </i>
    <i name="e_wo_entrp">    -10.99280292 </i>
    <i name="e_0_energy">    -10.99280292 </i>
   </energy>
  </scstep>
  <scstep>
   <time name="dav">    1.08    1.08</time>
   <time name="total">    1.09    1.10</time>
   <energy>
    <i name="e_fr_energy">    -10.87751033 </i>
    <i name="e_wo_entrp">    -10.87751033 </i>
    <i name="e_0_energy">    -10.87751033 </i>
   </energy>
  </scstep>
  <scstep>
   <time name="dav">    1.17    1.17</time>
   <time name="total">    1.18    1.18</time>
   <energy>
    <i name="e_fr_energy">    -10.82432022 </i>
    <i name="e_wo_entrp">    -10.82432020 </i>
    <i name="e_0_energy">    -10.82432021 </i>
   </energy>
  </scstep>
  <scstep>
   <time name="dav">    1.02    1.02</time>
   <time name="total">    1.02    1.03</time>
   <energy>
    <i name="e_fr_energy">    -10.82549346 </i>
    <i name="e_wo_entrp">    -10.82549345 </i>
    <i name="e_0_energy">    -10.82549346 </i>
   </energy>
  </scstep>
  <scstep>
   <time name="dav">    1.41    1.42</time>
   <time name="total">    1.42    1.42</time>
   <energy>
    <i name="e_fr_energy">    -10.82560398 </i>
    <i name="e_wo_entrp">    -10.82560397 </i>
    <i name="e_0_energy">    -10.82560398 </i>
   </energy>
  </scstep>
  <scstep>
   <time name="dav">    0.82    0.82</time>
   <time name="total">    0.82    0.82</time>
   <energy>
    <i name="alphaZ">      3.29449076 </i>
    <i name="ewald">   -226.97511711 </i>
    <i name="hartreedc">    -15.15815066 </i>
    <i name="XCdc">    -18.04827196 </i>
    <i name="pawpsdc">     74.43456178 </i>
    <i name="pawaedc">    -39.46153125 </i>
    <i name="eentropy">     -0.00000001 </i>
    <i name="bandstr">      4.96684198 </i>
    <i name="atom">    206.12155316 </i>
    <i name="e_fr_energy">    -10.82562332 </i>
    <i name="e_wo_entrp">    -10.82562331 </i>
    <i name="e_0_energy">    -10.82562331 </i>
   </energy>
  </scstep>
  <structure>
   <crystal>
    <varray name="basis" >
     <v>       0.00000000       2.73400000       2.73400000 </v>
     <v>       2.73400000       0.00000000       2.73400000 </v>
     <v>       2.73400000       2.73400000       0.00000000 </v>
    </varray>
    <i name="volume">     40.87196581 </i>
    <varray name="rec_basis" >
     <v>      -0.18288222       0.18288222       0.18288222 </v>
     <v>       0.18288222      -0.18288222       0.18288222 </v>
     <v>       0.18288222       0.18288222      -0.18288222 </v>
    </varray>
   </crystal>
   <varray name="positions" >
    <v>       0.00000000       0.00000000       0.00000000 </v>
    <v>       0.25000000       0.25000000       0.25000000 </v>
   </varray>
  </structure>
  <varray name="forces" >
   <v>       0.00000000       0.00000000       0.00000000 </v>
   <v>      -0.00000000      -0.00000000      -0.00000000 </v>
  </varray>
  <varray name="stress" >
   <v>      -1.49813243       0.00000000      -0.00000000 </v>
   <v>      -0.00000000      -1.49813243       0.00000000 </v>
   <v>       0.00000000       0.00000000      -1.49813243 </v>
  </varray>
  <energy>
   <i name="e_fr_energy">    -10.82562332 </i>
   <i name="e_wo_entrp">    -10.82562331 </i>
   <i name="e_0_energy">     -0.00000001 </i>
  </energy>
  <time name="totalsc">   10.95   11.07</time>
  <eigenvalues>
   <array>
    <dimension dim="1">band</dimension>
    <dimension dim="2">kpoint</dimension>
    <dimension dim="3">spin</dimension>
    <field>eigene</field>
    <field>occ</field>
    <set>
     <set comment="spin 1">
      <set comment="kpoint 1">
       <r>   -6.1974    1.0000 </r>
       <r>    5.6341    1.0000 </r>
       <r>    5.6341    1.0000 </r>
       <r>    5.6341    1.0000 </r>
       <r>    8.1915    0.0000 </r>
       <r>    8.1915    0.0000 </r>
       <r>    8.1915    0.0000 </r>
       <r>    8.7587    0.0000 </r>
       <r>   13.4105    0.0000 </r>
       <r>   13.4105    0.0000 </r>
       <r>   13.5009    0.0000 </r>
       <r>   16.8398    0.0000 </r>
       <r>   16.8398    0.0000 </r>
       <r>   16.8398    0.0000 </r>
       <r>   20.8982    0.0000 </r>
       <r>   28.7495    0.0000 </r>
       <r>   28.7495    0.0000 </r>
       <r>   28.7495    0.0000 </r>
       <r>   29.8637    0.0000 </r>
       <r>   29.8637    0.0000 </r>
       <r>   31.0949    0.0000 </r>
       <r>   31.0949    0.0000 </r>
       <r>   31.0949    0.0000 </r>
       <r>   34.5806    0.0000 </r>
       <r>   34.5806    0.0000 </r>
       <r>   34.5807    0.0000 </r>
       <r>   40.5153    0.0000 </r>
       <r>   40.5154    0.0000 </r>
       <r>   40.5154    0.0000 </r>
       <r>   43.4348    0.0000 </r>
       <r>   44.3281    0.0000 </r>
       <r>   44.3281    0.0000 </r>
       <r>   46.0035    0.0000 </r>
       <r>   46.0035    0.0000 </r>
       <r>   47.3400    0.0000 </r>
       <r>   47.3401    0.0000 </r>
       <r>   47.3401    0.0000 </r>
       <r>   49.1054    0.0000 </r>
       <r>   49.1055    0.0000 </r>
       <r>   49.1055    0.0000 </r>
      </set>
      <set comment="kpoint 2">
       <r>   -6.0911    1.0000 </r>
       <r>    4.6446    1.0000 </r>
       <r>    5.4678    1.0000 </r>
       <r>    5.4678    1.0000 </r>
       <r>    8.1802    0.0000 </r>
       <r>    8.4342    0.0000 </r>
       <r>    8.4343    0.0000 </r>
       <r>    9.5844    0.0000 </r>
       <r>   13.1009    0.0000 </r>
       <r>   13.1009    0.0000 </r>
       <r>   13.9471    0.0000 </r>
       <r>   16.4695    0.0000 </r>
       <r>   17.5007    0.0000 </r>
       <r>   17.5007    0.0000 </r>
       <r>   21.6022    0.0000 </r>
       <r>   27.5191    0.0000 </r>
       <r>   27.5192    0.0000 </r>
       <r>   27.5695    0.0000 </r>
       <r>   29.5019    0.0000 </r>
       <r>   29.5021    0.0000 </r>
       <r>   31.5389    0.0000 </r>
       <r>   31.5389    0.0000 </r>
       <r>   32.1019    0.0000 </r>
       <r>   34.6779    0.0000 </r>
       <r>   35.9275    0.0000 </r>
       <r>   35.9275    0.0000 </r>
       <r>   39.0253    0.0000 </r>
       <r>   40.1989    0.0000 </r>
       <r>   40.1990    0.0000 </r>
       <r>   43.2033    0.0000 </r>
       <r>   43.2034    0.0000 </r>
       <r>   43.8366    0.0000 </r>
       <r>   44.6591    0.0000 </r>
       <r>   44.6591    0.0000 </r>
       <r>   47.2407    0.0000 </r>
       <r>   47.2408    0.0000 </r>
       <r>   47.4444    0.0000 </r>
       <r>   48.2447    0.0000 </r>
       <r>   48.4309    0.0000 </r>
       <r>   49.0580    0.0000 </r>
      </set>
      <set comment="kpoint 3">
       <r>   -5.7762    1.0000 </r>
       <r>    2.9799    1.0000 </r>
       <r>    5.1310    1.0000 </r>
       <r>    5.1310    1.0000 </r>
       <r>    7.8588    0.0000 </r>
       <r>    8.9039    0.0000 </r>
       <r>    8.9039    0.0000 </r>
       <r>   11.1841    0.0000 </r>
       <r>   12.7468    0.0000 </r>
       <r>   12.7468    0.0000 </r>
       <r>   14.6903    0.0000 </r>
       <r>   16.3139    0.0000 </r>
       <r>   18.9915    0.0000 </r>
       <r>   18.9915    0.0000 </r>
       <r>   23.1069    0.0000 </r>
       <r>   25.0945    0.0000 </r>
       <r>   25.0946    0.0000 </r>
       <r>   25.7978    0.0000 </r>
       <r>   29.5739    0.0000 </r>
       <r>   29.5741    0.0000 </r>
       <r>   31.8528    0.0000 </r>
       <r>   31.8528    0.0000 </r>
       <r>   33.4850    0.0000 </r>
       <r>   34.9609    0.0000 </r>
       <r>   36.2457    0.0000 </r>
       <r>   38.1547    0.0000 </r>
       <r>   38.1548    0.0000 </r>
       <r>   39.4240    0.0000 </r>
       <r>   39.4241    0.0000 </r>
       <r>   40.6402    0.0000 </r>
       <r>   40.6404    0.0000 </r>
       <r>   43.2346    0.0000 </r>
       <r>   43.2346    0.0000 </r>
       <r>   44.1715    0.0000 </r>
       <r>   45.8257    0.0000 </r>
       <r>   46.0580    0.0000 </r>
       <r>   46.8006    0.0000 </r>
       <r>   46.8007    0.0000 </r>
       <r>   48.8377    0.0000 </r>
       <r>   49.1615    0.0000 </r>
      </set>
      <set comment="kpoint 4">
       <r>   -5.2694    1.0000 </r>
       <r>    1.3407    1.0000 </r>
       <r>    4.8088    1.0000 </r>
       <r>    4.8088    1.0000 </r>
       <r>    7.5136    0.0000 </r>
       <r>    9.1590    0.0000 </r>
       <r>    9.1590    0.0000 </r>
       <r>   12.7529    0.0000 </r>
       <r>   13.0068    0.0000 </r>
       <r>   13.0069    0.0000 </r>
       <r>   14.4896    0.0000 </r>
       <r>   17.8309    0.0000 </r>
       <r>   20.5221    0.0000 </r>
       <r>   20.5222    0.0000 </r>
       <r>   22.9886    0.0000 </r>
       <r>   22.9887    0.0000 </r>
       <r>   23.2028    0.0000 </r>
       <r>   25.9062    0.0000 </r>
       <r>   29.6915    0.0000 </r>
       <r>   29.6918    0.0000 </r>
       <r>   32.0774    0.0000 </r>
       <r>   32.0774    0.0000 </r>
       <r>   32.7551    0.0000 </r>
       <r>   35.0252    0.0000 </r>
       <r>   35.3943    0.0000 </r>
       <r>   36.5438    0.0000 </r>
       <r>   36.5439    0.0000 </r>
       <r>   38.7760    0.0000 </r>
       <r>   38.7760    0.0000 </r>
       <r>   39.8048    0.0000 </r>
       <r>   39.8048    0.0000 </r>
       <r>   42.8552    0.0000 </r>
       <r>   43.8444    0.0000 </r>
       <r>   44.0004    0.0000 </r>
       <r>   44.0005    0.0000 </r>
       <r>   44.1685    0.0000 </r>
       <r>   46.4858    0.0000 </r>
       <r>   46.4859    0.0000 </r>
       <r>   48.5495    0.0000 </r>
       <r>   49.0483    0.0000 </r>
      </set>
      <set comment="kpoint 5">
       <r>   -4.6221    1.0000 </r>
       <r>   -0.0946    1.0000 </r>
       <r>    4.5787    1.0000 </r>
       <r>    4.5788    1.0000 </r>
       <r>    7.2544    0.0000 </r>
       <r>    9.1132    0.0000 </r>
       <r>    9.1132    0.0000 </r>
       <r>   13.4732    0.0000 </r>
       <r>   14.0503    0.0000 </r>
       <r>   14.0503    0.0000 </r>
       <r>   14.9823    0.0000 </r>
       <r>   19.4428    0.0000 </r>
       <r>   19.5836    0.0000 </r>
       <r>   19.5837    0.0000 </r>
       <r>   22.1470    0.0000 </r>
       <r>   23.8075    0.0000 </r>
       <r>   23.8075    0.0000 </r>
       <r>   28.1318    0.0000 </r>
       <r>   29.5567    0.0000 </r>
       <r>   29.5569    0.0000 </r>
       <r>   29.7314    0.0000 </r>
       <r>   32.2339    0.0000 </r>
       <r>   32.2339    0.0000 </r>
       <r>   33.9778    0.0000 </r>
       <r>   33.9778    0.0000 </r>
       <r>   35.3465    0.0000 </r>
       <r>   35.8958    0.0000 </r>
       <r>   38.0941    0.0000 </r>
       <r>   38.0942    0.0000 </r>
       <r>   39.0684    0.0000 </r>
       <r>   39.0685    0.0000 </r>
       <r>   40.2316    0.0000 </r>
       <r>   42.6961    0.0000 </r>
       <r>   42.9004    0.0000 </r>
       <r>   46.1229    0.0000 </r>
       <r>   46.1229    0.0000 </r>
       <r>   46.8692    0.0000 </r>
       <r>   46.8693    0.0000 </r>
       <r>   48.1904    0.0000 </r>
       <r>   49.1814    0.0000 </r>
      </set>
      <set comment="kpoint 6">
       <r>   -4.0257    1.0000 </r>
       <r>   -1.0908    1.0000 </r>
       <r>    4.4619    1.0000 </r>
       <r>    4.4619    1.0000 </r>
       <r>    7.1195    0.0000 </r>
       <r>    9.0110    0.0000 </r>
       <r>    9.0111    0.0000 </r>
       <r>   13.3570    0.0000 </r>
       <r>   15.5952    0.0000 </r>
       <r>   15.5953    0.0000 </r>
       <r>   16.4316    0.0000 </r>
       <r>   17.5921    0.0000 </r>
       <r>   17.5921    0.0000 </r>
       <r>   18.7416    0.0000 </r>
       <r>   23.8025    0.0000 </r>
       <r>   26.0935    0.0000 </r>
       <r>   26.0935    0.0000 </r>
       <r>   26.6418    0.0000 </r>
       <r>   28.3488    0.0000 </r>
       <r>   28.3489    0.0000 </r>
       <r>   30.5788    0.0000 </r>
       <r>   32.0059    0.0000 </r>
       <r>   32.0060    0.0000 </r>
       <r>   32.9028    0.0000 </r>
       <r>   32.9029    0.0000 </r>
       <r>   34.1919    0.0000 </r>
       <r>   36.2774    0.0000 </r>
       <r>   37.8327    0.0000 </r>
       <r>   37.8328    0.0000 </r>
       <r>   38.4227    0.0000 </r>
       <r>   38.4229    0.0000 </r>
       <r>   39.2988    0.0000 </r>
       <r>   41.8306    0.0000 </r>
       <r>   42.0961    0.0000 </r>
       <r>   46.1885    0.0000 </r>
       <r>   46.1886    0.0000 </r>
       <r>   47.8283    0.0000 </r>
       <r>   47.8283    0.0000 </r>
       <r>   48.0395    0.0000 </r>
       <r>   49.1006    0.0000 </r>
      </set>
      <set comment="kpoint 7">
       <r>   -6.0554    1.0000 </r>
       <r>    4.8114    1.0000 </r>
       <r>    5.1480    1.0000 </r>
       <r>    5.1480    1.0000 </r>
       <r>    7.8764    0.0000 </r>
       <r>    8.8515    0.0000 </r>
       <r>    8.8515    0.0000 </r>
       <r>    9.5103    0.0000 </r>
       <r>   12.5389    0.0000 </r>
       <r>   13.5689    0.0000 </r>
       <r>   14.0974    0.0000 </r>
       <r>   17.0878    0.0000 </r>
       <r>   17.0878    0.0000 </r>
       <r>   17.4457    0.0000 </r>
       <r>   21.9037    0.0000 </r>
       <r>   27.0613    0.0000 </r>
       <r>   27.0613    0.0000 </r>
       <r>   28.3561    0.0000 </r>
       <r>   28.7737    0.0000 </r>
       <r>   28.9105    0.0000 </r>
       <r>   31.7856    0.0000 </r>
       <r>   31.9763    0.0000 </r>
       <r>   31.9763    0.0000 </r>
       <r>   35.6963    0.0000 </r>
       <r>   35.6963    0.0000 </r>
       <r>   36.1825    0.0000 </r>
       <r>   39.4712    0.0000 </r>
       <r>   39.4713    0.0000 </r>
       <r>   39.5426    0.0000 </r>
       <r>   42.2093    0.0000 </r>
       <r>   43.3477    0.0000 </r>
       <r>   43.9659    0.0000 </r>
       <r>   44.5092    0.0000 </r>
       <r>   45.8106    0.0000 </r>
       <r>   46.8592    0.0000 </r>
       <r>   46.8592    0.0000 </r>
       <r>   47.1786    0.0000 </r>
       <r>   47.6431    0.0000 </r>
       <r>   47.6431    0.0000 </r>
       <r>   48.6361    0.0000 </r>
      </set>
      <set comment="kpoint 8">
       <r>   -5.8093    1.0000 </r>
       <r>    3.4674    1.0000 </r>
       <r>    4.7555    1.0000 </r>
       <r>    4.9297    1.0000 </r>
       <r>    7.9100    0.0000 </r>
       <r>    8.8745    0.0000 </r>
       <r>    9.4376    0.0000 </r>
       <r>   10.5041    0.0000 </r>
       <r>   12.2645    0.0000 </r>
       <r>   13.5214    0.0000 </r>
       <r>   14.9054    0.0000 </r>
       <r>   16.6829    0.0000 </r>
       <r>   17.9366    0.0000 </r>
       <r>   18.8413    0.0000 </r>
       <r>   23.2228    0.0000 </r>
       <r>   24.9600    0.0000 </r>
       <r>   25.3048    0.0000 </r>
       <r>   27.6327    0.0000 </r>
       <r>   27.9886    0.0000 </r>
       <r>   28.7546    0.0000 </r>
       <r>   31.7931    0.0000 </r>
       <r>   32.3218    0.0000 </r>
       <r>   33.3042    0.0000 </r>
       <r>   36.0877    0.0000 </r>
       <r>   36.9344    0.0000 </r>
       <r>   37.4139    0.0000 </r>
       <r>   38.2310    0.0000 </r>
       <r>   38.5601    0.0000 </r>
       <r>   39.2520    0.0000 </r>
       <r>   40.2389    0.0000 </r>
       <r>   41.8429    0.0000 </r>
       <r>   42.3798    0.0000 </r>
       <r>   44.3399    0.0000 </r>
       <r>   44.7191    0.0000 </r>
       <r>   45.5182    0.0000 </r>
       <r>   45.8853    0.0000 </r>
       <r>   47.0434    0.0000 </r>
       <r>   47.5145    0.0000 </r>
       <r>   48.1250    0.0000 </r>
       <r>   48.5989    0.0000 </r>
      </set>
      <set comment="kpoint 9">
       <r>   -5.3638    1.0000 </r>
       <r>    1.8666    1.0000 </r>
       <r>    4.4393    1.0000 </r>
       <r>    4.5602    1.0000 </r>
       <r>    8.0181    0.0000 </r>
       <r>    8.8828    0.0000 </r>
       <r>    9.7938    0.0000 </r>
       <r>   10.9819    0.0000 </r>
       <r>   13.2964    0.0000 </r>
       <r>   13.6960    0.0000 </r>
       <r>   15.1240    0.0000 </r>
       <r>   17.3972    0.0000 </r>
       <r>   19.4079    0.0000 </r>
       <r>   20.6225    0.0000 </r>
       <r>   22.6299    0.0000 </r>
       <r>   23.1801    0.0000 </r>
       <r>   24.5807    0.0000 </r>
       <r>   26.3748    0.0000 </r>
       <r>   28.1352    0.0000 </r>
       <r>   28.9525    0.0000 </r>
       <r>   31.7448    0.0000 </r>
       <r>   32.6173    0.0000 </r>
       <r>   33.4134    0.0000 </r>
       <r>   35.2316    0.0000 </r>
       <r>   36.3707    0.0000 </r>
       <r>   36.9891    0.0000 </r>
       <r>   37.1752    0.0000 </r>
       <r>   38.4177    0.0000 </r>
       <r>   38.6913    0.0000 </r>
       <r>   39.3698    0.0000 </r>
       <r>   40.8096    0.0000 </r>
       <r>   41.9173    0.0000 </r>
       <r>   43.6171    0.0000 </r>
       <r>   44.1746    0.0000 </r>
       <r>   44.3890    0.0000 </r>
       <r>   45.1434    0.0000 </r>
       <r>   45.6049    0.0000 </r>
       <r>   47.7073    0.0000 </r>
       <r>   48.2981    0.0000 </r>
       <r>   48.5758    0.0000 </r>
      </set>
      <set comment="kpoint 10">
       <r>   -4.7535    1.0000 </r>
       <r>    0.3797    1.0000 </r>
       <r>    4.1812    1.0000 </r>
       <r>    4.2537    1.0000 </r>
       <r>    7.8534    0.0000 </r>
       <r>    8.9424    0.0000 </r>
       <r>    9.7389    0.0000 </r>
       <r>   11.7473    0.0000 </r>
       <r>   14.4784    0.0000 </r>
       <r>   14.5952    0.0000 </r>
       <r>   15.1159    0.0000 </r>
       <r>   18.9569    0.0000 </r>
       <r>   19.3001    0.0000 </r>
       <r>   20.7713    0.0000 </r>
       <r>   22.4160    0.0000 </r>
       <r>   22.8221    0.0000 </r>
       <r>   23.8997    0.0000 </r>
       <r>   27.9016    0.0000 </r>
       <r>   28.3180    0.0000 </r>
       <r>   29.2037    0.0000 </r>
       <r>   30.5614    0.0000 </r>
       <r>   31.2160    0.0000 </r>
       <r>   32.8932    0.0000 </r>
       <r>   34.6129    0.0000 </r>
       <r>   35.2089    0.0000 </r>
       <r>   35.9014    0.0000 </r>
       <r>   36.4173    0.0000 </r>
       <r>   37.2269    0.0000 </r>
       <r>   37.4960    0.0000 </r>
       <r>   38.9606    0.0000 </r>
       <r>   40.1440    0.0000 </r>
       <r>   41.3163    0.0000 </r>
       <r>   43.3339    0.0000 </r>
       <r>   43.7579    0.0000 </r>
       <r>   44.2803    0.0000 </r>
       <r>   44.6938    0.0000 </r>
       <r>   46.9096    0.0000 </r>
       <r>   47.7046    0.0000 </r>
       <r>   47.7625    0.0000 </r>
       <r>   48.8978    0.0000 </r>
      </set>
      <set comment="kpoint 11">
       <r>   -4.0983    1.0000 </r>
       <r>   -0.7932    1.0000 </r>
       <r>    3.8870    1.0000 </r>
       <r>    4.2123    1.0000 </r>
       <r>    7.7098    0.0000 </r>
       <r>    8.9147    0.0000 </r>
       <r>    9.5105    0.0000 </r>
       <r>   12.9725    0.0000 </r>
       <r>   14.3950    0.0000 </r>
       <r>   16.0194    0.0000 </r>
       <r>   16.6393    0.0000 </r>
       <r>   17.3565    0.0000 </r>
       <r>   18.1219    0.0000 </r>
       <r>   20.4115    0.0000 </r>
       <r>   23.0151    0.0000 </r>
       <r>   24.5414    0.0000 </r>
       <r>   25.8428    0.0000 </r>
       <r>   27.2400    0.0000 </r>
       <r>   28.2346    0.0000 </r>
       <r>   28.6968    0.0000 </r>
       <r>   30.3587    0.0000 </r>
       <r>   30.4873    0.0000 </r>
       <r>   32.5326    0.0000 </r>
       <r>   33.1046    0.0000 </r>
       <r>   33.6668    0.0000 </r>
       <r>   35.2589    0.0000 </r>
       <r>   36.0216    0.0000 </r>
       <r>   36.5376    0.0000 </r>
       <r>   37.5145    0.0000 </r>
       <r>   38.5570    0.0000 </r>
       <r>   39.2888    0.0000 </r>
       <r>   40.0112    0.0000 </r>
       <r>   42.7251    0.0000 </r>
       <r>   43.4532    0.0000 </r>
       <r>   43.6968    0.0000 </r>
       <r>   46.2799    0.0000 </r>
       <r>   46.3112    0.0000 </r>
       <r>   48.6982    0.0000 </r>
       <r>   48.9212    0.0000 </r>
       <r>   50.1447    0.0000 </r>
      </set>
      <set comment="kpoint 12">
       <r>   -3.8357    1.0000 </r>
       <r>   -1.1858    1.0000 </r>
       <r>    3.7124    1.0000 </r>
       <r>    4.3110    1.0000 </r>
       <r>    7.6784    0.0000 </r>
       <r>    8.9738    0.0000 </r>
       <r>    9.3262    0.0000 </r>
       <r>   13.6625    0.0000 </r>
       <r>   14.9528    0.0000 </r>
       <r>   15.2938    0.0000 </r>
       <r>   16.5199    0.0000 </r>
       <r>   17.9510    0.0000 </r>
       <r>   18.2683    0.0000 </r>
       <r>   19.0211    0.0000 </r>
       <r>   24.3944    0.0000 </r>
       <r>   25.5240    0.0000 </r>
       <r>   26.2849    0.0000 </r>
       <r>   26.8900    0.0000 </r>
       <r>   27.3734    0.0000 </r>
       <r>   27.8298    0.0000 </r>
       <r>   30.7383    0.0000 </r>
       <r>   31.2001    0.0000 </r>
       <r>   31.5850    0.0000 </r>
       <r>   33.2385    0.0000 </r>
       <r>   33.2463    0.0000 </r>
       <r>   34.4116    0.0000 </r>
       <r>   36.0132    0.0000 </r>
       <r>   36.1084    0.0000 </r>
       <r>   37.7302    0.0000 </r>
       <r>   38.7369    0.0000 </r>
       <r>   38.8460    0.0000 </r>
       <r>   39.8787    0.0000 </r>
       <r>   42.4830    0.0000 </r>
       <r>   43.1489    0.0000 </r>
       <r>   43.9144    0.0000 </r>
       <r>   45.8122    0.0000 </r>
       <r>   46.2930    0.0000 </r>
       <r>   48.8603    0.0000 </r>
       <r>   49.8741    0.0000 </r>
       <r>   50.8215    0.0000 </r>
      </set>
      <set comment="kpoint 13">
       <r>   -4.3068    1.0000 </r>
       <r>   -0.4521    1.0000 </r>
       <r>    3.6787    1.0000 </r>
       <r>    4.5346    1.0000 </r>
       <r>    7.7781    0.0000 </r>
       <r>    9.1623    0.0000 </r>
       <r>    9.2455    0.0000 </r>
       <r>   13.3458    0.0000 </r>
       <r>   13.6499    0.0000 </r>
       <r>   14.7891    0.0000 </r>
       <r>   16.7941    0.0000 </r>
       <r>   17.4777    0.0000 </r>
       <r>   19.9516    0.0000 </r>
       <r>   20.0441    0.0000 </r>
       <r>   22.2716    0.0000 </r>
       <r>   23.7176    0.0000 </r>
       <r>   25.4301    0.0000 </r>
       <r>   28.4483    0.0000 </r>
       <r>   28.4811    0.0000 </r>
       <r>   28.6228    0.0000 </r>
       <r>   29.6901    0.0000 </r>
       <r>   30.8412    0.0000 </r>
       <r>   32.8420    0.0000 </r>
       <r>   33.4244    0.0000 </r>
       <r>   33.5698    0.0000 </r>
       <r>   35.3540    0.0000 </r>
       <r>   36.4560    0.0000 </r>
       <r>   36.5859    0.0000 </r>
       <r>   37.7506    0.0000 </r>
       <r>   38.9470    0.0000 </r>
       <r>   39.4493    0.0000 </r>
       <r>   40.1474    0.0000 </r>
       <r>   42.8022    0.0000 </r>
       <r>   43.5587    0.0000 </r>
       <r>   44.4425    0.0000 </r>
       <r>   45.6765    0.0000 </r>
       <r>   46.1805    0.0000 </r>
       <r>   47.0140    0.0000 </r>
       <r>   49.3448    0.0000 </r>
       <r>   50.3666    0.0000 </r>
      </set>
      <set comment="kpoint 14">
       <r>   -4.9726    1.0000 </r>
       <r>    0.8554    1.0000 </r>
       <r>    3.8009    1.0000 </r>
       <r>    4.8547    1.0000 </r>
       <r>    7.9928    0.0000 </r>
       <r>    9.1696    0.0000 </r>
       <r>    9.3686    0.0000 </r>
       <r>   12.2871    0.0000 </r>
       <r>   12.4808    0.0000 </r>
       <r>   14.9452    0.0000 </r>
       <r>   15.1567    0.0000 </r>
       <r>   18.3047    0.0000 </r>
       <r>   19.7223    0.0000 </r>
       <r>   21.4852    0.0000 </r>
       <r>   21.5788    0.0000 </r>
       <r>   23.2120    0.0000 </r>
       <r>   23.9043    0.0000 </r>
       <r>   27.0870    0.0000 </r>
       <r>   28.4048    0.0000 </r>
       <r>   28.9457    0.0000 </r>
       <r>   31.4637    0.0000 </r>
       <r>   31.9789    0.0000 </r>
       <r>   32.6495    0.0000 </r>
       <r>   34.7991    0.0000 </r>
       <r>   35.5835    0.0000 </r>
       <r>   36.0761    0.0000 </r>
       <r>   36.7704    0.0000 </r>
       <r>   37.2288    0.0000 </r>
       <r>   38.0748    0.0000 </r>
       <r>   39.4700    0.0000 </r>
       <r>   40.2152    0.0000 </r>
       <r>   42.2501    0.0000 </r>
       <r>   43.0736    0.0000 </r>
       <r>   44.1141    0.0000 </r>
       <r>   44.2259    0.0000 </r>
       <r>   45.2529    0.0000 </r>
       <r>   45.7231    0.0000 </r>
       <r>   46.1257    0.0000 </r>
       <r>   47.1467    0.0000 </r>
       <r>   49.6708    0.0000 </r>
      </set>
      <set comment="kpoint 15">
       <r>   -5.5342    1.0000 </r>
       <r>    2.3845    1.0000 </r>
       <r>    4.0972    1.0000 </r>
       <r>    5.2161    1.0000 </r>
       <r>    8.2887    0.0000 </r>
       <r>    8.8836    0.0000 </r>
       <r>    9.2334    0.0000 </r>
       <r>   11.3884    0.0000 </r>
       <r>   12.0725    0.0000 </r>
       <r>   13.8084    0.0000 </r>
       <r>   15.2476    0.0000 </r>
       <r>   16.8811    0.0000 </r>
       <r>   18.6981    0.0000 </r>
       <r>   20.5150    0.0000 </r>
       <r>   22.6751    0.0000 </r>
       <r>   23.9345    0.0000 </r>
       <r>   25.3614    0.0000 </r>
       <r>   25.9832    0.0000 </r>
       <r>   28.0850    0.0000 </r>
       <r>   28.8482    0.0000 </r>
       <r>   32.0668    0.0000 </r>
       <r>   32.1883    0.0000 </r>
       <r>   34.3329    0.0000 </r>
       <r>   35.2138    0.0000 </r>
       <r>   35.8920    0.0000 </r>
       <r>   37.4129    0.0000 </r>
       <r>   37.9964    0.0000 </r>
       <r>   38.5613    0.0000 </r>
       <r>   39.1665    0.0000 </r>
       <r>   39.9706    0.0000 </r>
       <r>   40.7529    0.0000 </r>
       <r>   41.4290    0.0000 </r>
       <r>   43.7523    0.0000 </r>
       <r>   44.5886    0.0000 </r>
       <r>   44.6703    0.0000 </r>
       <r>   45.4187    0.0000 </r>
       <r>   46.2903    0.0000 </r>
       <r>   46.7988    0.0000 </r>
       <r>   47.0252    0.0000 </r>
       <r>   49.4225    0.0000 </r>
      </set>
      <set comment="kpoint 16">
       <r>   -5.9149    1.0000 </r>
       <r>    3.8396    1.0000 </r>
       <r>    4.6578    1.0000 </r>
       <r>    5.4907    1.0000 </r>
       <r>    8.4848    0.0000 </r>
       <r>    8.5195    0.0000 </r>
       <r>    8.6491    0.0000 </r>
       <r>   10.4790    0.0000 </r>
       <r>   12.4168    0.0000 </r>
       <r>   13.2581    0.0000 </r>
       <r>   14.5860    0.0000 </r>
       <r>   16.6755    0.0000 </r>
       <r>   17.3836    0.0000 </r>
       <r>   18.8185    0.0000 </r>
       <r>   22.5908    0.0000 </r>
       <r>   25.1152    0.0000 </r>
       <r>   27.0729    0.0000 </r>
       <r>   27.4928    0.0000 </r>
       <r>   28.1091    0.0000 </r>
       <r>   29.0449    0.0000 </r>
       <r>   31.8084    0.0000 </r>
       <r>   31.9892    0.0000 </r>
       <r>   33.2020    0.0000 </r>
       <r>   35.6491    0.0000 </r>
       <r>   36.4124    0.0000 </r>
       <r>   37.6313    0.0000 </r>
       <r>   37.9264    0.0000 </r>
       <r>   38.6737    0.0000 </r>
       <r>   40.2571    0.0000 </r>
       <r>   41.1907    0.0000 </r>
       <r>   42.5215    0.0000 </r>
       <r>   42.6303    0.0000 </r>
       <r>   43.8723    0.0000 </r>
       <r>   44.6940    0.0000 </r>
       <r>   45.8137    0.0000 </r>
       <r>   46.7493    0.0000 </r>
       <r>   47.0195    0.0000 </r>
       <r>   48.0419    0.0000 </r>
       <r>   48.0925    0.0000 </r>
       <r>   48.8280    0.0000 </r>
      </set>
      <set comment="kpoint 17">
       <r>   -5.6321    1.0000 </r>
       <r>    3.3100    1.0000 </r>
       <r>    4.3273    1.0000 </r>
       <r>    4.3273    1.0000 </r>
       <r>    7.2380    0.0000 </r>
       <r>    9.7145    0.0000 </r>
       <r>   10.1865    0.0000 </r>
       <r>   10.1865    0.0000 </r>
       <r>   12.3308    0.0000 </r>
       <r>   14.0407    0.0000 </r>
       <r>   15.5586    0.0000 </r>
       <r>   17.8184    0.0000 </r>
       <r>   17.8184    0.0000 </r>
       <r>   18.4259    0.0000 </r>
       <r>   24.3696    0.0000 </r>
       <r>   24.5917    0.0000 </r>
       <r>   24.5917    0.0000 </r>
       <r>   25.8206    0.0000 </r>
       <r>   27.0547    0.0000 </r>
       <r>   29.5253    0.0000 </r>
       <r>   32.2241    0.0000 </r>
       <r>   32.6232    0.0000 </r>
       <r>   32.6232    0.0000 </r>
       <r>   36.9305    0.0000 </r>
       <r>   36.9306    0.0000 </r>
       <r>   37.2096    0.0000 </r>
       <r>   38.4515    0.0000 </r>
       <r>   38.4516    0.0000 </r>
       <r>   38.5536    0.0000 </r>
       <r>   38.7676    0.0000 </r>
       <r>   41.2081    0.0000 </r>
       <r>   43.1926    0.0000 </r>
       <r>   44.1997    0.0000 </r>
       <r>   44.1998    0.0000 </r>
       <r>   45.7725    0.0000 </r>
       <r>   45.7958    0.0000 </r>
       <r>   46.6259    0.0000 </r>
       <r>   46.7213    0.0000 </r>
       <r>   46.7214    0.0000 </r>
       <r>   49.2498    0.0000 </r>
      </set>
      <set comment="kpoint 18">
       <r>   -5.2515    1.0000 </r>
       <r>    2.1669    1.0000 </r>
       <r>    3.9118    1.0000 </r>
       <r>    3.9883    1.0000 </r>
       <r>    7.2912    0.0000 </r>
       <r>    9.3215    0.0000 </r>
       <r>   10.4720    0.0000 </r>
       <r>   10.7708    0.0000 </r>
       <r>   13.5171    0.0000 </r>
       <r>   14.3511    0.0000 </r>
       <r>   16.3233    0.0000 </r>
       <r>   17.7663    0.0000 </r>
       <r>   18.7355    0.0000 </r>
       <r>   20.0076    0.0000 </r>
       <r>   22.5761    0.0000 </r>
       <r>   23.0284    0.0000 </r>
       <r>   25.5709    0.0000 </r>
       <r>   25.7546    0.0000 </r>
       <r>   26.6068    0.0000 </r>
       <r>   29.1952    0.0000 </r>
       <r>   31.7514    0.0000 </r>
       <r>   32.7926    0.0000 </r>
       <r>   33.2064    0.0000 </r>
       <r>   35.0342    0.0000 </r>
       <r>   35.5991    0.0000 </r>
       <r>   36.2051    0.0000 </r>
       <r>   37.2367    0.0000 </r>
       <r>   38.7385    0.0000 </r>
       <r>   39.2580    0.0000 </r>
       <r>   40.4388    0.0000 </r>
       <r>   40.9281    0.0000 </r>
       <r>   41.6257    0.0000 </r>
       <r>   43.0819    0.0000 </r>
       <r>   43.2951    0.0000 </r>
       <r>   45.5702    0.0000 </r>
       <r>   45.8121    0.0000 </r>
       <r>   45.9162    0.0000 </r>
       <r>   47.2935    0.0000 </r>
       <r>   47.8903    0.0000 </r>
       <r>   48.4921    0.0000 </r>
      </set>
      <set comment="kpoint 19">
       <r>   -4.6906    1.0000 </r>
       <r>    0.8158    1.0000 </r>
       <r>    3.3844    1.0000 </r>
       <r>    3.7933    1.0000 </r>
       <r>    7.5274    0.0000 </r>
       <r>    9.6785    0.0000 </r>
       <r>   10.2734    0.0000 </r>
       <r>   10.8579    0.0000 </r>
       <r>   15.1634    0.0000 </r>
       <r>   15.2387    0.0000 </r>
       <r>   16.1042    0.0000 </r>
       <r>   18.8218    0.0000 </r>
       <r>   19.0613    0.0000 </r>
       <r>   20.6960    0.0000 </r>
       <r>   21.5686    0.0000 </r>
       <r>   22.8482    0.0000 </r>
       <r>   25.1962    0.0000 </r>
       <r>   25.8379    0.0000 </r>
       <r>   27.3701    0.0000 </r>
       <r>   29.4191    0.0000 </r>
       <r>   30.2698    0.0000 </r>
       <r>   31.6392    0.0000 </r>
       <r>   32.7477    0.0000 </r>
       <r>   34.1823    0.0000 </r>
       <r>   34.7623    0.0000 </r>
       <r>   35.8634    0.0000 </r>
       <r>   36.7991    0.0000 </r>
       <r>   37.3347    0.0000 </r>
       <r>   38.3415    0.0000 </r>
       <r>   39.6985    0.0000 </r>
       <r>   40.8612    0.0000 </r>
       <r>   42.0876    0.0000 </r>
       <r>   42.7400    0.0000 </r>
       <r>   42.7430    0.0000 </r>
       <r>   43.9200    0.0000 </r>
       <r>   45.3596    0.0000 </r>
       <r>   47.5250    0.0000 </r>
       <r>   47.7797    0.0000 </r>
       <r>   49.1439    0.0000 </r>
       <r>   49.4028    0.0000 </r>
      </set>
      <set comment="kpoint 20">
       <r>   -4.0237    1.0000 </r>
       <r>   -0.4010    1.0000 </r>
       <r>    2.9131    1.0000 </r>
       <r>    3.7605    1.0000 </r>
       <r>    7.5672    0.0000 </r>
       <r>   10.0373    0.0000 </r>
       <r>   10.6120    0.0000 </r>
       <r>   10.8911    0.0000 </r>
       <r>   15.5110    0.0000 </r>
       <r>   16.5051    0.0000 </r>
       <r>   17.0658    0.0000 </r>
       <r>   17.2625    0.0000 </r>
       <r>   18.2732    0.0000 </r>
       <r>   21.6793    0.0000 </r>
       <r>   23.2773    0.0000 </r>
       <r>   23.4921    0.0000 </r>
       <r>   25.0178    0.0000 </r>
       <r>   26.1466    0.0000 </r>
       <r>   26.9553    0.0000 </r>
       <r>   28.6966    0.0000 </r>
       <r>   29.6754    0.0000 </r>
       <r>   31.2343    0.0000 </r>
       <r>   32.3688    0.0000 </r>
       <r>   33.0011    0.0000 </r>
       <r>   34.3590    0.0000 </r>
       <r>   34.6510    0.0000 </r>
       <r>   35.8478    0.0000 </r>
       <r>   36.4202    0.0000 </r>
       <r>   37.7118    0.0000 </r>
       <r>   39.5380    0.0000 </r>
       <r>   40.3720    0.0000 </r>
       <r>   40.8991    0.0000 </r>
       <r>   42.2107    0.0000 </r>
       <r>   42.4486    0.0000 </r>
       <r>   44.4836    0.0000 </r>
       <r>   45.7466    0.0000 </r>
       <r>   47.8661    0.0000 </r>
       <r>   48.4248    0.0000 </r>
       <r>   50.3373    0.0000 </r>
       <r>   50.5129    0.0000 </r>
      </set>
      <set comment="kpoint 21">
       <r>   -3.5531    1.0000 </r>
       <r>   -1.0960    1.0000 </r>
       <r>    2.5827    1.0000 </r>
       <r>    3.8884    1.0000 </r>
       <r>    7.6628    0.0000 </r>
       <r>    9.9134    0.0000 </r>
       <r>   10.3237    0.0000 </r>
       <r>   12.4993    0.0000 </r>
       <r>   14.6704    0.0000 </r>
       <r>   15.1656    0.0000 </r>
       <r>   17.0694    0.0000 </r>
       <r>   18.3837    0.0000 </r>
       <r>   18.9864    0.0000 </r>
       <r>   21.2308    0.0000 </r>
       <r>   24.2804    0.0000 </r>
       <r>   24.4912    0.0000 </r>
       <r>   25.2214    0.0000 </r>
       <r>   26.4211    0.0000 </r>
       <r>   26.6191    0.0000 </r>
       <r>   27.3563    0.0000 </r>
       <r>   30.1271    0.0000 </r>
       <r>   31.4995    0.0000 </r>
       <r>   32.1072    0.0000 </r>
       <r>   32.2055    0.0000 </r>
       <r>   32.9931    0.0000 </r>
       <r>   34.7537    0.0000 </r>
       <r>   34.9177    0.0000 </r>
       <r>   36.1589    0.0000 </r>
       <r>   37.2913    0.0000 </r>
       <r>   39.2234    0.0000 </r>
       <r>   40.4316    0.0000 </r>
       <r>   40.9693    0.0000 </r>
       <r>   42.0369    0.0000 </r>
       <r>   42.1756    0.0000 </r>
       <r>   44.1864    0.0000 </r>
       <r>   46.0724    0.0000 </r>
       <r>   47.6280    0.0000 </r>
       <r>   48.8080    0.0000 </r>
       <r>   49.9248    0.0000 </r>
       <r>   50.8502    0.0000 </r>
      </set>
      <set comment="kpoint 22">
       <r>   -3.8310    1.0000 </r>
       <r>   -0.6931    1.0000 </r>
       <r>    2.4334    1.0000 </r>
       <r>    4.1619    1.0000 </r>
       <r>    7.9063    0.0000 </r>
       <r>    9.9084    0.0000 </r>
       <r>   10.0990    0.0000 </r>
       <r>   13.3043    0.0000 </r>
       <r>   13.4419    0.0000 </r>
       <r>   14.2466    0.0000 </r>
       <r>   16.9564    0.0000 </r>
       <r>   19.3642    0.0000 </r>
       <r>   20.3796    0.0000 </r>
       <r>   20.5100    0.0000 </r>
       <r>   22.0002    0.0000 </r>
       <r>   24.3381    0.0000 </r>
       <r>   25.4952    0.0000 </r>
       <r>   26.8890    0.0000 </r>
       <r>   27.6756    0.0000 </r>
       <r>   27.9704    0.0000 </r>
       <r>   29.6737    0.0000 </r>
       <r>   31.4872    0.0000 </r>
       <r>   32.4887    0.0000 </r>
       <r>   32.5365    0.0000 </r>
       <r>   32.8217    0.0000 </r>
       <r>   33.7107    0.0000 </r>
       <r>   34.8388    0.0000 </r>
       <r>   37.3826    0.0000 </r>
       <r>   38.2878    0.0000 </r>
       <r>   39.3004    0.0000 </r>
       <r>   40.3912    0.0000 </r>
       <r>   41.0646    0.0000 </r>
       <r>   42.1607    0.0000 </r>
       <r>   42.3115    0.0000 </r>
       <r>   44.0510    0.0000 </r>
       <r>   46.2218    0.0000 </r>
       <r>   46.7610    0.0000 </r>
       <r>   47.9583    0.0000 </r>
       <r>   48.0840    0.0000 </r>
       <r>   50.7746    0.0000 </r>
      </set>
      <set comment="kpoint 23">
       <r>   -4.4891    1.0000 </r>
       <r>    0.4033    1.0000 </r>
       <r>    2.5175    1.0000 </r>
       <r>    4.5432    1.0000 </r>
       <r>    8.2613    0.0000 </r>
       <r>    9.8466    0.0000 </r>
       <r>    9.9662    0.0000 </r>
       <r>   11.9149    0.0000 </r>
       <r>   12.2040    0.0000 </r>
       <r>   15.6747    0.0000 </r>
       <r>   17.3951    0.0000 </r>
       <r>   17.6758    0.0000 </r>
       <r>   19.4682    0.0000 </r>
       <r>   21.4908    0.0000 </r>
       <r>   22.2615    0.0000 </r>
       <r>   23.1557    0.0000 </r>
       <r>   24.9244    0.0000 </r>
       <r>   26.7751    0.0000 </r>
       <r>   27.4074    0.0000 </r>
       <r>   29.1582    0.0000 </r>
       <r>   30.1037    0.0000 </r>
       <r>   31.2729    0.0000 </r>
       <r>   32.8804    0.0000 </r>
       <r>   33.6227    0.0000 </r>
       <r>   33.6282    0.0000 </r>
       <r>   35.0422    0.0000 </r>
       <r>   35.7604    0.0000 </r>
       <r>   37.9221    0.0000 </r>
       <r>   39.0651    0.0000 </r>
       <r>   39.6247    0.0000 </r>
       <r>   40.2983    0.0000 </r>
       <r>   42.2917    0.0000 </r>
       <r>   42.3553    0.0000 </r>
       <r>   43.1432    0.0000 </r>
       <r>   43.9682    0.0000 </r>
       <r>   44.1432    0.0000 </r>
       <r>   45.9724    0.0000 </r>
       <r>   46.8611    0.0000 </r>
       <r>   47.8985    0.0000 </r>
       <r>   49.6945    0.0000 </r>
      </set>
      <set comment="kpoint 24">
       <r>   -5.0943    1.0000 </r>
       <r>    1.5776    1.0000 </r>
       <r>    2.9984    1.0000 </r>
       <r>    4.9528    1.0000 </r>
       <r>    8.5739    0.0000 </r>
       <r>    9.3596    0.0000 </r>
       <r>    9.6587    0.0000 </r>
       <r>   11.2430    0.0000 </r>
       <r>   11.7798    0.0000 </r>
       <r>   15.5354    0.0000 </r>
       <r>   16.1757    0.0000 </r>
       <r>   17.2693    0.0000 </r>
       <r>   19.3402    0.0000 </r>
       <r>   20.5466    0.0000 </r>
       <r>   22.1196    0.0000 </r>
       <r>   24.1083    0.0000 </r>
       <r>   25.8179    0.0000 </r>
       <r>   25.8862    0.0000 </r>
       <r>   27.1084    0.0000 </r>
       <r>   27.8455    0.0000 </r>
       <r>   31.9920    0.0000 </r>
       <r>   32.2089    0.0000 </r>
       <r>   33.4081    0.0000 </r>
       <r>   34.6280    0.0000 </r>
       <r>   35.5974    0.0000 </r>
       <r>   36.0358    0.0000 </r>
       <r>   36.7579    0.0000 </r>
       <r>   39.0013    0.0000 </r>
       <r>   39.4495    0.0000 </r>
       <r>   39.7597    0.0000 </r>
       <r>   39.9877    0.0000 </r>
       <r>   40.8999    0.0000 </r>
       <r>   43.4823    0.0000 </r>
       <r>   43.7932    0.0000 </r>
       <r>   44.7974    0.0000 </r>
       <r>   44.9044    0.0000 </r>
       <r>   45.5242    0.0000 </r>
       <r>   45.5705    0.0000 </r>
       <r>   48.0019    0.0000 </r>
       <r>   49.4553    0.0000 </r>
      </set>
      <set comment="kpoint 25">
       <r>   -4.9355    1.0000 </r>
       <r>    1.7024    1.0000 </r>
       <r>    3.6155    1.0000 </r>
       <r>    3.6156    1.0000 </r>
       <r>    6.6574    0.0000 </r>
       <r>    8.4528    0.0000 </r>
       <r>   11.7371    0.0000 </r>
       <r>   11.7371    0.0000 </r>
       <r>   13.9822    0.0000 </r>
       <r>   14.8287    0.0000 </r>
       <r>   17.3982    0.0000 </r>
       <r>   18.8618    0.0000 </r>
       <r>   18.8618    0.0000 </r>
       <r>   19.6483    0.0000 </r>
       <r>   22.4551    0.0000 </r>
       <r>   22.4552    0.0000 </r>
       <r>   23.3386    0.0000 </r>
       <r>   25.3853    0.0000 </r>
       <r>   27.1267    0.0000 </r>
       <r>   30.9425    0.0000 </r>
       <r>   31.5589    0.0000 </r>
       <r>   32.5322    0.0000 </r>
       <r>   32.5323    0.0000 </r>
       <r>   34.4173    0.0000 </r>
       <r>   34.4173    0.0000 </r>
       <r>   34.6138    0.0000 </r>
       <r>   34.8318    0.0000 </r>
       <r>   40.3603    0.0000 </r>
       <r>   40.5495    0.0000 </r>
       <r>   41.5191    0.0000 </r>
       <r>   41.5192    0.0000 </r>
       <r>   42.3071    0.0000 </r>
       <r>   42.3071    0.0000 </r>
       <r>   42.4341    0.0000 </r>
       <r>   45.7787    0.0000 </r>
       <r>   45.7787    0.0000 </r>
       <r>   45.8472    0.0000 </r>
       <r>   46.7756    0.0000 </r>
       <r>   47.0275    0.0000 </r>
       <r>   48.9325    0.0000 </r>
      </set>
      <set comment="kpoint 26">
       <r>   -4.4306    1.0000 </r>
       <r>    0.7603    1.0000 </r>
       <r>    3.0872    1.0000 </r>
       <r>    3.3866    1.0000 </r>
       <r>    6.7909    0.0000 </r>
       <r>    8.1674    0.0000 </r>
       <r>   12.0169    0.0000 </r>
       <r>   12.2045    0.0000 </r>
       <r>   15.4342    0.0000 </r>
       <r>   15.5637    0.0000 </r>
       <r>   17.6432    0.0000 </r>
       <r>   18.9576    0.0000 </r>
       <r>   19.3640    0.0000 </r>
       <r>   20.3618    0.0000 </r>
       <r>   21.3897    0.0000 </r>
       <r>   22.3124    0.0000 </r>
       <r>   23.3058    0.0000 </r>
       <r>   25.0790    0.0000 </r>
       <r>   27.8330    0.0000 </r>
       <r>   29.8927    0.0000 </r>
       <r>   30.9813    0.0000 </r>
       <r>   31.5264    0.0000 </r>
       <r>   32.1047    0.0000 </r>
       <r>   32.7370    0.0000 </r>
       <r>   34.1384    0.0000 </r>
       <r>   34.2296    0.0000 </r>
       <r>   35.4644    0.0000 </r>
       <r>   39.0515    0.0000 </r>
       <r>   39.7155    0.0000 </r>
       <r>   40.9125    0.0000 </r>
       <r>   41.8073    0.0000 </r>
       <r>   42.1136    0.0000 </r>
       <r>   42.8497    0.0000 </r>
       <r>   43.0466    0.0000 </r>
       <r>   44.9623    0.0000 </r>
       <r>   45.6635    0.0000 </r>
       <r>   46.4637    0.0000 </r>
       <r>   46.7626    0.0000 </r>
       <r>   47.9012    0.0000 </r>
       <r>   49.0384    0.0000 </r>
      </set>
      <set comment="kpoint 27">
       <r>   -3.7829    1.0000 </r>
       <r>   -0.2527    1.0000 </r>
       <r>    2.3727    1.0000 </r>
       <r>    3.3254    1.0000 </r>
       <r>    6.9936    0.0000 </r>
       <r>    8.9072    0.0000 </r>
       <r>   11.8507    0.0000 </r>
       <r>   12.0784    0.0000 </r>
       <r>   16.5993    0.0000 </r>
       <r>   16.9270    0.0000 </r>
       <r>   17.2657    0.0000 </r>
       <r>   17.3549    0.0000 </r>
       <r>   19.2288    0.0000 </r>
       <r>   21.1902    0.0000 </r>
       <r>   22.3381    0.0000 </r>
       <r>   23.9236    0.0000 </r>
       <r>   24.0852    0.0000 </r>
       <r>   25.0333    0.0000 </r>
       <r>   26.7704    0.0000 </r>
       <r>   27.8876    0.0000 </r>
       <r>   30.4074    0.0000 </r>
       <r>   30.4847    0.0000 </r>
       <r>   30.9732    0.0000 </r>
       <r>   33.0445    0.0000 </r>
       <r>   34.0247    0.0000 </r>
       <r>   34.4403    0.0000 </r>
       <r>   36.6068    0.0000 </r>
       <r>   36.8555    0.0000 </r>
       <r>   38.0852    0.0000 </r>
       <r>   40.0745    0.0000 </r>
       <r>   41.5455    0.0000 </r>
       <r>   41.5651    0.0000 </r>
       <r>   42.4240    0.0000 </r>
       <r>   43.1787    0.0000 </r>
       <r>   44.1889    0.0000 </r>
       <r>   45.8961    0.0000 </r>
       <r>   47.7970    0.0000 </r>
       <r>   48.6940    0.0000 </r>
       <r>   49.2534    0.0000 </r>
       <r>   49.8550    0.0000 </r>
      </set>
      <set comment="kpoint 28">
       <r>   -3.1824    1.0000 </r>
       <r>   -1.0391    1.0000 </r>
       <r>    1.8086    1.0000 </r>
       <r>    3.4356    1.0000 </r>
       <r>    7.1260    0.0000 </r>
       <r>   10.3731    0.0000 </r>
       <r>   11.6767    0.0000 </r>
       <r>   11.7532    0.0000 </r>
       <r>   15.0523    0.0000 </r>
       <r>   15.2087    0.0000 </r>
       <r>   18.6950    0.0000 </r>
       <r>   18.7590    0.0000 </r>
       <r>   19.2055    0.0000 </r>
       <r>   23.1399    0.0000 </r>
       <r>   23.2151    0.0000 </r>
       <r>   23.6668    0.0000 </r>
       <r>   24.1223    0.0000 </r>
       <r>   25.4300    0.0000 </r>
       <r>   25.4608    0.0000 </r>
       <r>   28.3968    0.0000 </r>
       <r>   29.2349    0.0000 </r>
       <r>   29.8580    0.0000 </r>
       <r>   30.3163    0.0000 </r>
       <r>   33.8319    0.0000 </r>
       <r>   33.8508    0.0000 </r>
       <r>   34.2199    0.0000 </r>
       <r>   34.6497    0.0000 </r>
       <r>   36.6045    0.0000 </r>
       <r>   37.6191    0.0000 </r>
       <r>   39.6559    0.0000 </r>
       <r>   40.7341    0.0000 </r>
       <r>   41.1428    0.0000 </r>
       <r>   42.6377    0.0000 </r>
       <r>   43.4402    0.0000 </r>
       <r>   43.6171    0.0000 </r>
       <r>   45.9439    0.0000 </r>
       <r>   48.5221    0.0000 </r>
       <r>   48.7328    0.0000 </r>
       <r>   49.6395    0.0000 </r>
       <r>   50.7843    0.0000 </r>
      </set>
      <set comment="kpoint 29">
       <r>   -3.2381    1.0000 </r>
       <r>   -0.9606    1.0000 </r>
       <r>    1.5294    1.0000 </r>
       <r>    3.7054    1.0000 </r>
       <r>    7.4099    0.0000 </r>
       <r>   11.4007    0.0000 </r>
       <r>   11.4282    0.0000 </r>
       <r>   12.2980    0.0000 </r>
       <r>   13.3421    0.0000 </r>
       <r>   13.4638    0.0000 </r>
       <r>   18.6530    0.0000 </r>
       <r>   20.6489    0.0000 </r>
       <r>   20.7634    0.0000 </r>
       <r>   21.4853    0.0000 </r>
       <r>   22.1579    0.0000 </r>
       <r>   23.3841    0.0000 </r>
       <r>   24.5824    0.0000 </r>
       <r>   25.4762    0.0000 </r>
       <r>   27.4827    0.0000 </r>
       <r>   27.7176    0.0000 </r>
       <r>   29.7608    0.0000 </r>
       <r>   30.2917    0.0000 </r>
       <r>   31.2852    0.0000 </r>
       <r>   31.9747    0.0000 </r>
       <r>   33.6395    0.0000 </r>
       <r>   34.0979    0.0000 </r>
       <r>   34.6568    0.0000 </r>
       <r>   34.8818    0.0000 </r>
       <r>   39.4443    0.0000 </r>
       <r>   39.6820    0.0000 </r>
       <r>   40.9012    0.0000 </r>
       <r>   41.3961    0.0000 </r>
       <r>   42.4185    0.0000 </r>
       <r>   43.2569    0.0000 </r>
       <r>   43.5584    0.0000 </r>
       <r>   44.6599    0.0000 </r>
       <r>   47.4826    0.0000 </r>
       <r>   48.5392    0.0000 </r>
       <r>   49.6669    0.0000 </r>
       <r>   50.5593    0.0000 </r>
      </set>
      <set comment="kpoint 30">
       <r>   -3.8599    1.0000 </r>
       <r>   -0.2136    1.0000 </r>
       <r>    1.6893    1.0000 </r>
       <r>    4.1016    1.0000 </r>
       <r>    7.8447    0.0000 </r>
       <r>   10.7986    0.0000 </r>
       <r>   11.1603    0.0000 </r>
       <r>   11.9585    0.0000 </r>
       <r>   12.3896    0.0000 </r>
       <r>   14.2649    0.0000 </r>
       <r>   18.6343    0.0000 </r>
       <r>   19.2697    0.0000 </r>
       <r>   19.7703    0.0000 </r>
       <r>   22.4007    0.0000 </r>
       <r>   22.5270    0.0000 </r>
       <r>   23.0502    0.0000 </r>
       <r>   23.6556    0.0000 </r>
       <r>   26.3435    0.0000 </r>
       <r>   28.1774    0.0000 </r>
       <r>   28.6149    0.0000 </r>
       <r>   30.0178    0.0000 </r>
       <r>   31.0898    0.0000 </r>
       <r>   31.4802    0.0000 </r>
       <r>   31.7128    0.0000 </r>
       <r>   33.4371    0.0000 </r>
       <r>   34.5953    0.0000 </r>
       <r>   34.9011    0.0000 </r>
       <r>   35.6571    0.0000 </r>
       <r>   39.7673    0.0000 </r>
       <r>   40.1590    0.0000 </r>
       <r>   41.1655    0.0000 </r>
       <r>   42.5475    0.0000 </r>
       <r>   42.6614    0.0000 </r>
       <r>   43.0909    0.0000 </r>
       <r>   43.4522    0.0000 </r>
       <r>   43.5530    0.0000 </r>
       <r>   44.7477    0.0000 </r>
       <r>   48.1956    0.0000 </r>
       <r>   49.7964    0.0000 </r>
       <r>   50.4336    0.0000 </r>
      </set>
      <set comment="kpoint 31">
       <r>   -3.9812    1.0000 </r>
       <r>    0.1055    1.0000 </r>
       <r>    3.1156    1.0000 </r>
       <r>    3.1156    1.0000 </r>
       <r>    6.3103    0.0000 </r>
       <r>    7.3317    0.0000 </r>
       <r>   13.3886    0.0000 </r>
       <r>   13.3886    0.0000 </r>
       <r>   15.8940    0.0000 </r>
       <r>   15.9243    0.0000 </r>
       <r>   18.8131    0.0000 </r>
       <r>   18.8131    0.0000 </r>
       <r>   18.9766    0.0000 </r>
       <r>   21.0735    0.0000 </r>
       <r>   21.2989    0.0000 </r>
       <r>   22.1504    0.0000 </r>
       <r>   22.1504    0.0000 </r>
       <r>   24.3185    0.0000 </r>
       <r>   29.0805    0.0000 </r>
       <r>   29.3029    0.0000 </r>
       <r>   29.9216    0.0000 </r>
       <r>   29.9216    0.0000 </r>
       <r>   31.2258    0.0000 </r>
       <r>   33.0182    0.0000 </r>
       <r>   33.9901    0.0000 </r>
       <r>   34.3601    0.0000 </r>
       <r>   34.3602    0.0000 </r>
       <r>   40.4856    0.0000 </r>
       <r>   40.5370    0.0000 </r>
       <r>   40.5371    0.0000 </r>
       <r>   41.1330    0.0000 </r>
       <r>   41.8074    0.0000 </r>
       <r>   44.6981    0.0000 </r>
       <r>   44.6981    0.0000 </r>
       <r>   44.8019    0.0000 </r>
       <r>   45.1450    0.0000 </r>
       <r>   45.1450    0.0000 </r>
       <r>   46.7127    0.0000 </r>
       <r>   47.6427    0.0000 </r>
       <r>   48.7907    0.0000 </r>
      </set>
      <set comment="kpoint 32">
       <r>   -3.3700    1.0000 </r>
       <r>   -0.6981    1.0000 </r>
       <r>    2.5924    1.0000 </r>
       <r>    3.0111    1.0000 </r>
       <r>    6.5191    0.0000 </r>
       <r>    7.3412    0.0000 </r>
       <r>   13.7025    0.0000 </r>
       <r>   13.7184    0.0000 </r>
       <r>   17.0467    0.0000 </r>
       <r>   17.0737    0.0000 </r>
       <r>   17.3830    0.0000 </r>
       <r>   17.5393    0.0000 </r>
       <r>   20.0716    0.0000 </r>
       <r>   20.7077    0.0000 </r>
       <r>   21.2823    0.0000 </r>
       <r>   23.3082    0.0000 </r>
       <r>   23.7349    0.0000 </r>
       <r>   24.8011    0.0000 </r>
       <r>   26.9051    0.0000 </r>
       <r>   28.5415    0.0000 </r>
       <r>   28.6988    0.0000 </r>
       <r>   29.5057    0.0000 </r>
       <r>   29.9795    0.0000 </r>
       <r>   31.9632    0.0000 </r>
       <r>   34.5864    0.0000 </r>
       <r>   34.8420    0.0000 </r>
       <r>   36.5288    0.0000 </r>
       <r>   38.5309    0.0000 </r>
       <r>   39.4875    0.0000 </r>
       <r>   40.0454    0.0000 </r>
       <r>   41.2778    0.0000 </r>
       <r>   41.8803    0.0000 </r>
       <r>   43.6725    0.0000 </r>
       <r>   44.4231    0.0000 </r>
       <r>   45.1201    0.0000 </r>
       <r>   45.3329    0.0000 </r>
       <r>   46.1359    0.0000 </r>
       <r>   46.8324    0.0000 </r>
       <r>   47.3510    0.0000 </r>
       <r>   48.2016    0.0000 </r>
      </set>
      <set comment="kpoint 33">
       <r>   -2.7090    1.0000 </r>
       <r>   -1.4041    1.0000 </r>
       <r>    1.8306    1.0000 </r>
       <r>    3.0828    1.0000 </r>
       <r>    6.6894    0.0000 </r>
       <r>    8.5081    0.0000 </r>
       <r>   13.4366    0.0000 </r>
       <r>   13.5655    0.0000 </r>
       <r>   15.3080    0.0000 </r>
       <r>   15.4322    0.0000 </r>
       <r>   18.9096    0.0000 </r>
       <r>   19.1576    0.0000 </r>
       <r>   20.8094    0.0000 </r>
       <r>   20.9594    0.0000 </r>
       <r>   21.5285    0.0000 </r>
       <r>   23.6694    0.0000 </r>
       <r>   24.9550    0.0000 </r>
       <r>   25.1139    0.0000 </r>
       <r>   26.3894    0.0000 </r>
       <r>   27.6154    0.0000 </r>
       <r>   28.1950    0.0000 </r>
       <r>   28.6198    0.0000 </r>
       <r>   29.6060    0.0000 </r>
       <r>   31.3499    0.0000 </r>
       <r>   34.7489    0.0000 </r>
       <r>   35.4644    0.0000 </r>
       <r>   36.5530    0.0000 </r>
       <r>   37.2312    0.0000 </r>
       <r>   38.9402    0.0000 </r>
       <r>   39.8206    0.0000 </r>
       <r>   40.7910    0.0000 </r>
       <r>   41.2243    0.0000 </r>
       <r>   42.4169    0.0000 </r>
       <r>   43.5465    0.0000 </r>
       <r>   44.7271    0.0000 </r>
       <r>   45.6331    0.0000 </r>
       <r>   46.8949    0.0000 </r>
       <r>   48.0306    0.0000 </r>
       <r>   49.0995    0.0000 </r>
       <r>   49.2642    0.0000 </r>
      </set>
      <set comment="kpoint 34">
       <r>   -2.6491    1.0000 </r>
       <r>   -1.4334    1.0000 </r>
       <r>    1.3551    1.0000 </r>
       <r>    3.3232    1.0000 </r>
       <r>    6.9617    0.0000 </r>
       <r>   10.2149    0.0000 </r>
       <r>   12.7516    0.0000 </r>
       <r>   13.2975    0.0000 </r>
       <r>   13.4973    0.0000 </r>
       <r>   13.9347    0.0000 </r>
       <r>   20.2490    0.0000 </r>
       <r>   20.7671    0.0000 </r>
       <r>   21.0471    0.0000 </r>
       <r>   21.1554    0.0000 </r>
       <r>   21.3249    0.0000 </r>
       <r>   22.9359    0.0000 </r>
       <r>   24.5959    0.0000 </r>
       <r>   25.5018    0.0000 </r>
       <r>   27.2417    0.0000 </r>
       <r>   27.4442    0.0000 </r>
       <r>   28.3286    0.0000 </r>
       <r>   28.5513    0.0000 </r>
       <r>   31.0843    0.0000 </r>
       <r>   31.7485    0.0000 </r>
       <r>   33.6910    0.0000 </r>
       <r>   34.7448    0.0000 </r>
       <r>   34.7731    0.0000 </r>
       <r>   36.1728    0.0000 </r>
       <r>   40.1327    0.0000 </r>
       <r>   40.1919    0.0000 </r>
       <r>   40.3855    0.0000 </r>
       <r>   40.7819    0.0000 </r>
       <r>   42.0447    0.0000 </r>
       <r>   42.9284    0.0000 </r>
       <r>   44.3138    0.0000 </r>
       <r>   45.3805    0.0000 </r>
       <r>   48.4447    0.0000 </r>
       <r>   48.6048    0.0000 </r>
       <r>   48.7121    0.0000 </r>
       <r>   50.6384    0.0000 </r>
      </set>
      <set comment="kpoint 35">
       <r>   -2.7953    1.0000 </r>
       <r>   -1.4156    1.0000 </r>
       <r>    2.8595    1.0000 </r>
       <r>    2.8595    1.0000 </r>
       <r>    6.2752    0.0000 </r>
       <r>    6.6034    0.0000 </r>
       <r>   15.0570    0.0000 </r>
       <r>   15.0570    0.0000 </r>
       <r>   17.1840    0.0000 </r>
       <r>   17.1841    0.0000 </r>
       <r>   17.3561    0.0000 </r>
       <r>   17.6787    0.0000 </r>
       <r>   19.0155    0.0000 </r>
       <r>   19.0661    0.0000 </r>
       <r>   23.3916    0.0000 </r>
       <r>   24.1318    0.0000 </r>
       <r>   24.1318    0.0000 </r>
       <r>   24.7382    0.0000 </r>
       <r>   26.8367    0.0000 </r>
       <r>   26.8906    0.0000 </r>
       <r>   26.8906    0.0000 </r>
       <r>   28.0433    0.0000 </r>
       <r>   30.5496    0.0000 </r>
       <r>   31.7692    0.0000 </r>
       <r>   34.7493    0.0000 </r>
       <r>   34.7493    0.0000 </r>
       <r>   37.8737    0.0000 </r>
       <r>   39.6103    0.0000 </r>
       <r>   39.6104    0.0000 </r>
       <r>   40.6688    0.0000 </r>
       <r>   41.2762    0.0000 </r>
       <r>   41.4693    0.0000 </r>
       <r>   43.6421    0.0000 </r>
       <r>   44.1630    0.0000 </r>
       <r>   44.8203    0.0000 </r>
       <r>   44.8203    0.0000 </r>
       <r>   45.9715    0.0000 </r>
       <r>   45.9715    0.0000 </r>
       <r>   47.1204    0.0000 </r>
       <r>   47.2078    0.0000 </r>
      </set>
      <set comment="kpoint 36">
       <r>   -2.1614    1.0000 </r>
       <r>   -2.0495    1.0000 </r>
       <r>    2.4289    1.0000 </r>
       <r>    2.8841    1.0000 </r>
       <r>    6.4566    0.0000 </r>
       <r>    7.0307    0.0000 </r>
       <r>   14.9709    0.0000 </r>
       <r>   15.1915    0.0000 </r>
       <r>   15.7829    0.0000 </r>
       <r>   15.9862    0.0000 </r>
       <r>   18.8108    0.0000 </r>
       <r>   18.8165    0.0000 </r>
       <r>   18.8225    0.0000 </r>
       <r>   19.4195    0.0000 </r>
       <r>   23.4392    0.0000 </r>
       <r>   23.7428    0.0000 </r>
       <r>   25.2130    0.0000 </r>
       <r>   25.4778    0.0000 </r>
       <r>   25.8457    0.0000 </r>
       <r>   26.5900    0.0000 </r>
       <r>   27.1179    0.0000 </r>
       <r>   27.7353    0.0000 </r>
       <r>   30.1000    0.0000 </r>
       <r>   30.9612    0.0000 </r>
       <r>   34.8150    0.0000 </r>
       <r>   35.7975    0.0000 </r>
       <r>   37.5852    0.0000 </r>
       <r>   39.3118    0.0000 </r>
       <r>   39.6752    0.0000 </r>
       <r>   39.8027    0.0000 </r>
       <r>   40.9865    0.0000 </r>
       <r>   41.1379    0.0000 </r>
       <r>   43.3374    0.0000 </r>
       <r>   44.0056    0.0000 </r>
       <r>   44.2431    0.0000 </r>
       <r>   44.4699    0.0000 </r>
       <r>   46.1384    0.0000 </r>
       <r>   46.7128    0.0000 </r>
       <r>   47.7558    0.0000 </r>
       <r>   48.4200    0.0000 </r>
      </set>
      <set comment="kpoint 37">
       <r>   -5.4964    1.0000 </r>
       <r>    2.6100    1.0000 </r>
       <r>    3.8301    1.0000 </r>
       <r>    4.8182    1.0000 </r>
       <r>    7.9706    0.0000 </r>
       <r>    9.1903    0.0000 </r>
       <r>    9.9847    0.0000 </r>
       <r>   10.4110    0.0000 </r>
       <r>   12.6173    0.0000 </r>
       <r>   14.0531    0.0000 </r>
       <r>   15.7501    0.0000 </r>
       <r>   17.1036    0.0000 </r>
       <r>   18.2636    0.0000 </r>
       <r>   20.1896    0.0000 </r>
       <r>   22.6615    0.0000 </r>
       <r>   24.3129    0.0000 </r>
       <r>   25.1285    0.0000 </r>
       <r>   26.3856    0.0000 </r>
       <r>   27.9242    0.0000 </r>
       <r>   27.9953    0.0000 </r>
       <r>   31.3137    0.0000 </r>
       <r>   33.0990    0.0000 </r>
       <r>   34.1501    0.0000 </r>
       <r>   35.3104    0.0000 </r>
       <r>   36.4503    0.0000 </r>
       <r>   37.0017    0.0000 </r>
       <r>   38.3410    0.0000 </r>
       <r>   38.7557    0.0000 </r>
       <r>   38.7716    0.0000 </r>
       <r>   39.7520    0.0000 </r>
       <r>   40.6343    0.0000 </r>
       <r>   41.2791    0.0000 </r>
       <r>   43.6014    0.0000 </r>
       <r>   44.1545    0.0000 </r>
       <r>   44.9746    0.0000 </r>
[...]
        <r>  0.0011  0.0135  0.0127  0.0000  0.0000  0.0000  0.0000  0.0000  0.0000 </r>
       </set>
       <set comment="band 36">
        <r>  0.0022  0.0012  0.0012  0.0048  0.0000  0.0000  0.0000  0.0000  0.0000 </r>
        <r>  0.0022  0.0012  0.0012  0.0048  0.0000  0.0000  0.0000  0.0000  0.0000 </r>
       </set>
       <set comment="band 37">
        <r>  0.0008  0.0016  0.0133  0.0160  0.0000  0.0000  0.0000  0.0000  0.0000 </r>
        <r>  0.0008  0.0016  0.0133  0.0160  0.0000  0.0000  0.0000  0.0000  0.0000 </r>
       </set>
       <set comment="band 38">
        <r>  0.0011  0.0104  0.0118  0.0024  0.0000  0.0000  0.0000  0.0000  0.0000 </r>
        <r>  0.0011  0.0104  0.0118  0.0024  0.0000  0.0000  0.0000  0.0000  0.0000 </r>
       </set>
       <set comment="band 39">
        <r>  0.0068  0.0246  0.0001  0.0062  0.0000  0.0000  0.0000  0.0000  0.0000 </r>
        <r>  0.0068  0.0246  0.0001  0.0062  0.0000  0.0000  0.0000  0.0000  0.0000 </r>
       </set>
       <set comment="band 40">
        <r>  0.0026  0.0099  0.0027  0.0003  0.0000  0.0000  0.0000  0.0000  0.0000 </r>
        <r>  0.0026  0.0099  0.0027  0.0003  0.0000  0.0000  0.0000  0.0000  0.0000 </r>
       </set>
      </set>
      <set comment="kpoint 55">
       <set comment="band 1">
        <r>  0.2056  0.0006  0.0281  0.0073  0.0000  0.0000  0.0000  0.0000  0.0000 </r>
        <r>  0.2056  0.0006  0.0281  0.0073  0.0000  0.0000  0.0000  0.0000  0.0000 </r>
       </set>
       <set comment="band 2">
        <r>  0.1982  0.0003  0.0341  0.0152  0.0000  0.0000  0.0000  0.0000  0.0000 </r>
        <r>  0.1982  0.0003  0.0341  0.0152  0.0000  0.0000  0.0000  0.0000  0.0000 </r>
       </set>
       <set comment="band 3">
        <r>  0.0038  0.0667  0.0259  0.0693  0.0000  0.0000  0.0000  0.0000  0.0000 </r>
        <r>  0.0038  0.0667  0.0259  0.0693  0.0000  0.0000  0.0000  0.0000  0.0000 </r>
       </set>
       <set comment="band 4">
        <r>  0.0000  0.0789  0.0348  0.0556  0.0000  0.0000  0.0000  0.0000  0.0000 </r>
        <r>  0.0000  0.0789  0.0348  0.0556  0.0000  0.0000  0.0000  0.0000  0.0000 </r>
       </set>
       <set comment="band 5">
        <r>  0.0314  0.0392  0.0253  0.0222  0.0000  0.0000  0.0000  0.0000  0.0000 </r>
        <r>  0.0314  0.0392  0.0253  0.0222  0.0000  0.0000  0.0000  0.0000  0.0000 </r>
       </set>
       <set comment="band 6">
        <r>  0.0305  0.0416  0.0181  0.0156  0.0000  0.0000  0.0000  0.0000  0.0000 </r>
        <r>  0.0305  0.0416  0.0181  0.0156  0.0000  0.0000  0.0000  0.0000  0.0000 </r>
       </set>
       <set comment="band 7">
        <r>  0.0374  0.0430  0.0305  0.0359  0.0000  0.0000  0.0000  0.0000  0.0000 </r>
        <r>  0.0374  0.0430  0.0305  0.0359  0.0000  0.0000  0.0000  0.0000  0.0000 </r>
       </set>
       <set comment="band 8">
        <r>  0.0245  0.0491  0.0375  0.0316  0.0000  0.0000  0.0000  0.0000  0.0000 </r>
        <r>  0.0245  0.0491  0.0375  0.0316  0.0000  0.0000  0.0000  0.0000  0.0000 </r>
       </set>
       <set comment="band 9">
        <r>  0.0005  0.0378  0.0250  0.0759  0.0000  0.0000  0.0000  0.0000  0.0000 </r>
        <r>  0.0005  0.0378  0.0250  0.0759  0.0000  0.0000  0.0000  0.0000  0.0000 </r>
       </set>
       <set comment="band 10">
        <r>  0.0120  0.0278  0.0737  0.0170  0.0000  0.0000  0.0000  0.0000  0.0000 </r>
        <r>  0.0120  0.0278  0.0737  0.0170  0.0000  0.0000  0.0000  0.0000  0.0000 </r>
       </set>
       <set comment="band 11">
        <r>  0.0201  0.0091  0.0167  0.0780  0.0000  0.0000  0.0000  0.0000  0.0000 </r>
        <r>  0.0201  0.0091  0.0167  0.0780  0.0000  0.0000  0.0000  0.0000  0.0000 </r>
       </set>
       <set comment="band 12">
        <r>  0.0137  0.0009  0.0983  0.0171  0.0000  0.0000  0.0000  0.0000  0.0000 </r>
        <r>  0.0137  0.0009  0.0983  0.0171  0.0000  0.0000  0.0000  0.0000  0.0000 </r>
       </set>
       <set comment="band 13">
        <r>  0.0071  0.0094  0.0206  0.0277  0.0000  0.0000  0.0000  0.0000  0.0000 </r>
        <r>  0.0071  0.0094  0.0206  0.0277  0.0000  0.0000  0.0000  0.0000  0.0000 </r>
       </set>
       <set comment="band 14">
        <r>  0.0091  0.0264  0.0552  0.0009  0.0000  0.0000  0.0000  0.0000  0.0000 </r>
        <r>  0.0091  0.0264  0.0552  0.0009  0.0000  0.0000  0.0000  0.0000  0.0000 </r>
       </set>
       <set comment="band 15">
        <r>  0.0197  0.0053  0.0138  0.0044  0.0000  0.0000  0.0000  0.0000  0.0000 </r>
        <r>  0.0197  0.0053  0.0138  0.0044  0.0000  0.0000  0.0000  0.0000  0.0000 </r>
       </set>
       <set comment="band 16">
        <r>  0.0265  0.0045  0.0270  0.0254  0.0000  0.0000  0.0000  0.0000  0.0000 </r>
        <r>  0.0265  0.0045  0.0270  0.0254  0.0000  0.0000  0.0000  0.0000  0.0000 </r>
       </set>
       <set comment="band 17">
        <r>  0.0003  0.0144  0.0301  0.0037  0.0000  0.0000  0.0000  0.0000  0.0000 </r>
        <r>  0.0003  0.0144  0.0301  0.0037  0.0000  0.0000  0.0000  0.0000  0.0000 </r>
       </set>
       <set comment="band 18">
        <r>  0.0337  0.0025  0.0116  0.0042  0.0000  0.0000  0.0000  0.0000  0.0000 </r>
        <r>  0.0337  0.0025  0.0116  0.0042  0.0000  0.0000  0.0000  0.0000  0.0000 </r>
       </set>
       <set comment="band 19">
        <r>  0.0062  0.0089  0.0049  0.0515  0.0000  0.0000  0.0000  0.0000  0.0000 </r>
        <r>  0.0062  0.0089  0.0049  0.0515  0.0000  0.0000  0.0000  0.0000  0.0000 </r>
       </set>
       <set comment="band 20">
        <r>  0.0001  0.0628  0.0000  0.0297  0.0000  0.0000  0.0000  0.0000  0.0000 </r>
        <r>  0.0001  0.0628  0.0000  0.0297  0.0000  0.0000  0.0000  0.0000  0.0000 </r>
       </set>
       <set comment="band 21">
        <r>  0.0282  0.0172  0.0039  0.0155  0.0000  0.0000  0.0000  0.0000  0.0000 </r>
        <r>  0.0282  0.0172  0.0039  0.0155  0.0000  0.0000  0.0000  0.0000  0.0000 </r>
       </set>
       <set comment="band 22">
        <r>  0.0001  0.0025  0.0003  0.0000  0.0000  0.0000  0.0000  0.0000  0.0000 </r>
        <r>  0.0001  0.0025  0.0003  0.0000  0.0000  0.0000  0.0000  0.0000  0.0000 </r>
       </set>
       <set comment="band 23">
        <r>  0.0048  0.0636  0.0122  0.0018  0.0000  0.0000  0.0000  0.0000  0.0000 </r>
        <r>  0.0048  0.0636  0.0122  0.0018  0.0000  0.0000  0.0000  0.0000  0.0000 </r>
       </set>
       <set comment="band 24">
        <r>  0.0007  0.0067  0.0027  0.0027  0.0000  0.0000  0.0000  0.0000  0.0000 </r>
        <r>  0.0007  0.0067  0.0027  0.0027  0.0000  0.0000  0.0000  0.0000  0.0000 </r>
       </set>
       <set comment="band 25">
        <r>  0.0376  0.0069  0.0013  0.0016  0.0000  0.0000  0.0000  0.0000  0.0000 </r>
        <r>  0.0376  0.0069  0.0013  0.0016  0.0000  0.0000  0.0000  0.0000  0.0000 </r>
       </set>
       <set comment="band 26">
        <r>  0.0011  0.0071  0.0005  0.0064  0.0000  0.0000  0.0000  0.0000  0.0000 </r>
        <r>  0.0011  0.0071  0.0005  0.0064  0.0000  0.0000  0.0000  0.0000  0.0000 </r>
       </set>
       <set comment="band 27">
        <r>  0.0437  0.0084  0.0127  0.0023  0.0000  0.0000  0.0000  0.0000  0.0000 </r>
        <r>  0.0437  0.0084  0.0127  0.0023  0.0000  0.0000  0.0000  0.0000  0.0000 </r>
       </set>
       <set comment="band 28">
        <r>  0.0101  0.0203  0.0011  0.0052  0.0000  0.0000  0.0000  0.0000  0.0000 </r>
        <r>  0.0101  0.0203  0.0011  0.0052  0.0000  0.0000  0.0000  0.0000  0.0000 </r>
       </set>
       <set comment="band 29">
        <r>  0.0009  0.0070  0.0031  0.0136  0.0000  0.0000  0.0000  0.0000  0.0000 </r>
        <r>  0.0009  0.0070  0.0031  0.0136  0.0000  0.0000  0.0000  0.0000  0.0000 </r>
       </set>
       <set comment="band 30">
        <r>  0.0029  0.0131  0.0015  0.0120  0.0000  0.0000  0.0000  0.0000  0.0000 </r>
        <r>  0.0029  0.0131  0.0015  0.0120  0.0000  0.0000  0.0000  0.0000  0.0000 </r>
       </set>
       <set comment="band 31">
        <r>  0.0104  0.0010  0.0081  0.0090  0.0000  0.0000  0.0000  0.0000  0.0000 </r>
        <r>  0.0104  0.0010  0.0081  0.0090  0.0000  0.0000  0.0000  0.0000  0.0000 </r>
       </set>
       <set comment="band 32">
        <r>  0.0001  0.0042  0.0128  0.0289  0.0000  0.0000  0.0000  0.0000  0.0000 </r>
        <r>  0.0001  0.0042  0.0128  0.0289  0.0000  0.0000  0.0000  0.0000  0.0000 </r>
       </set>
       <set comment="band 33">
        <r>  0.0008  0.0027  0.0058  0.0345  0.0000  0.0000  0.0000  0.0000  0.0000 </r>
        <r>  0.0008  0.0027  0.0058  0.0345  0.0000  0.0000  0.0000  0.0000  0.0000 </r>
       </set>
       <set comment="band 34">
        <r>  0.0006  0.0020  0.0152  0.0022  0.0000  0.0000  0.0000  0.0000  0.0000 </r>
        <r>  0.0006  0.0020  0.0152  0.0022  0.0000  0.0000  0.0000  0.0000  0.0000 </r>
       </set>
       <set comment="band 35">
        <r>  0.0001  0.0171  0.0062  0.0103  0.0000  0.0000  0.0000  0.0000  0.0000 </r>
        <r>  0.0001  0.0171  0.0062  0.0103  0.0000  0.0000  0.0000  0.0000  0.0000 </r>
       </set>
       <set comment="band 36">
        <r>  0.0032  0.0068  0.0107  0.0026  0.0000  0.0000  0.0000  0.0000  0.0000 </r>
        <r>  0.0032  0.0068  0.0107  0.0026  0.0000  0.0000  0.0000  0.0000  0.0000 </r>
       </set>
       <set comment="band 37">
        <r>  0.0058  0.0315  0.0015  0.0006  0.0000  0.0000  0.0000  0.0000  0.0000 </r>
        <r>  0.0058  0.0315  0.0015  0.0006  0.0000  0.0000  0.0000  0.0000  0.0000 </r>
       </set>
       <set comment="band 38">
        <r>  0.0191  0.0118  0.0009  0.0027  0.0000  0.0000  0.0000  0.0000  0.0000 </r>
        <r>  0.0191  0.0118  0.0009  0.0027  0.0000  0.0000  0.0000  0.0000  0.0000 </r>
       </set>
       <set comment="band 39">
        <r>  0.0000  0.0011  0.0004  0.0079  0.0000  0.0000  0.0000  0.0000  0.0000 </r>
        <r>  0.0000  0.0011  0.0004  0.0079  0.0000  0.0000  0.0000  0.0000  0.0000 </r>
       </set>
       <set comment="band 40">
        <r>  0.0054  0.0045  0.0013  0.0120  0.0000  0.0000  0.0000  0.0000  0.0000 </r>
        <r>  0.0054  0.0045  0.0013  0.0120  0.0000  0.0000  0.0000  0.0000  0.0000 </r>
       </set>
      </set>
      <set comment="kpoint 56">
       <set comment="band 1">
        <r>  0.2101  0.0006  0.0185  0.0167  0.0000  0.0000  0.0000  0.0000  0.0000 </r>
        <r>  0.2101  0.0006  0.0185  0.0167  0.0000  0.0000  0.0000  0.0000  0.0000 </r>
       </set>
       <set comment="band 2">
        <r>  0.1972  0.0009  0.0303  0.0173  0.0000  0.0000  0.0000  0.0000  0.0000 </r>
        <r>  0.1972  0.0009  0.0303  0.0173  0.0000  0.0000  0.0000  0.0000  0.0000 </r>
       </set>
       <set comment="band 3">
        <r>  0.0003  0.0636  0.0495  0.0450  0.0000  0.0000  0.0000  0.0000  0.0000 </r>
        <r>  0.0003  0.0636  0.0495  0.0450  0.0000  0.0000  0.0000  0.0000  0.0000 </r>
       </set>
       <set comment="band 4">
        <r>  0.0015  0.0770  0.0307  0.0608  0.0000  0.0000  0.0000  0.0000  0.0000 </r>
        <r>  0.0015  0.0770  0.0307  0.0608  0.0000  0.0000  0.0000  0.0000  0.0000 </r>
       </set>
       <set comment="band 5">
        <r>  0.0280  0.0485  0.0212  0.0143  0.0000  0.0000  0.0000  0.0000  0.0000 </r>
        <r>  0.0280  0.0485  0.0212  0.0143  0.0000  0.0000  0.0000  0.0000  0.0000 </r>
       </set>
       <set comment="band 6">
        <r>  0.0016  0.0852  0.0003  0.0021  0.0000  0.0000  0.0000  0.0000  0.0000 </r>
        <r>  0.0016  0.0852  0.0003  0.0021  0.0000  0.0000  0.0000  0.0000  0.0000 </r>
       </set>
       <set comment="band 7">
        <r>  0.0526  0.0031  0.0534  0.0609  0.0000  0.0000  0.0000  0.0000  0.0000 </r>
        <r>  0.0526  0.0031  0.0534  0.0609  0.0000  0.0000  0.0000  0.0000  0.0000 </r>
       </set>
       <set comment="band 8">
        <r>  0.0417  0.0348  0.0343  0.0291  0.0000  0.0000  0.0000  0.0000  0.0000 </r>
        <r>  0.0417  0.0348  0.0343  0.0291  0.0000  0.0000  0.0000  0.0000  0.0000 </r>
       </set>
       <set comment="band 9">
        <r>  0.0032  0.0390  0.0661  0.0375  0.0000  0.0000  0.0000  0.0000  0.0000 </r>
        <r>  0.0032  0.0390  0.0661  0.0375  0.0000  0.0000  0.0000  0.0000  0.0000 </r>
       </set>
       <set comment="band 10">
        <r>  0.0103  0.0264  0.0021  0.0856  0.0000  0.0000  0.0000  0.0000  0.0000 </r>
        <r>  0.0103  0.0264  0.0021  0.0856  0.0000  0.0000  0.0000  0.0000  0.0000 </r>
       </set>
       <set comment="band 11">
        <r>  0.0184  0.0115  0.1050  0.0021  0.0000  0.0000  0.0000  0.0000  0.0000 </r>
        <r>  0.0184  0.0115  0.1050  0.0021  0.0000  0.0000  0.0000  0.0000  0.0000 </r>
       </set>
       <set comment="band 12">
        <r>  0.0158  0.0019  0.0355  0.0775  0.0000  0.0000  0.0000  0.0000  0.0000 </r>
        <r>  0.0158  0.0019  0.0355  0.0775  0.0000  0.0000  0.0000  0.0000  0.0000 </r>
       </set>
       <set comment="band 13">
        <r>  0.0041  0.0045  0.0137  0.0143  0.0000  0.0000  0.0000  0.0000  0.0000 </r>
        <r>  0.0041  0.0045  0.0137  0.0143  0.0000  0.0000  0.0000  0.0000  0.0000 </r>
       </set>
       <set comment="band 14">
        <r>  0.0177  0.0002  0.0004  0.0090  0.0000  0.0000  0.0000  0.0000  0.0000 </r>
        <r>  0.0177  0.0002  0.0004  0.0090  0.0000  0.0000  0.0000  0.0000  0.0000 </r>
       </set>
       <set comment="band 15">
        <r>  0.0020  0.0379  0.0560  0.0387  0.0000  0.0000  0.0000  0.0000  0.0000 </r>
        <r>  0.0020  0.0379  0.0560  0.0387  0.0000  0.0000  0.0000  0.0000  0.0000 </r>
       </set>
       <set comment="band 16">
        <r>  0.0089  0.0130  0.0537  0.0026  0.0000  0.0000  0.0000  0.0000  0.0000 </r>
        <r>  0.0089  0.0130  0.0537  0.0026  0.0000  0.0000  0.0000  0.0000  0.0000 </r>
       </set>
       <set comment="band 17">
        <r>  0.0248  0.0356  0.0248  0.0073  0.0000  0.0000  0.0000  0.0000  0.0000 </r>
        <r>  0.0248  0.0356  0.0248  0.0073  0.0000  0.0000  0.0000  0.0000  0.0000 </r>
       </set>
       <set comment="band 18">
        <r>  0.0075  0.0074  0.0074  0.0318  0.0000  0.0000  0.0000  0.0000  0.0000 </r>
        <r>  0.0075  0.0074  0.0074  0.0318  0.0000  0.0000  0.0000  0.0000  0.0000 </r>
       </set>
       <set comment="band 19">
        <r>  0.0404  0.0026  0.0051  0.0056  0.0000  0.0000  0.0000  0.0000  0.0000 </r>
        <r>  0.0404  0.0026  0.0051  0.0056  0.0000  0.0000  0.0000  0.0000  0.0000 </r>
       </set>
       <set comment="band 20">
        <r>  0.0050  0.0042  0.0006  0.0487  0.0000  0.0000  0.0000  0.0000  0.0000 </r>
        <r>  0.0050  0.0042  0.0006  0.0487  0.0000  0.0000  0.0000  0.0000  0.0000 </r>
       </set>
       <set comment="band 21">
        <r>  0.0002  0.0550  0.0055  0.0009  0.0000  0.0000  0.0000  0.0000  0.0000 </r>
        <r>  0.0002  0.0550  0.0055  0.0009  0.0000  0.0000  0.0000  0.0000  0.0000 </r>
       </set>
       <set comment="band 22">
        <r>  0.0071  0.0567  0.0040  0.0020  0.0000  0.0000  0.0000  0.0000  0.0000 </r>
        <r>  0.0071  0.0567  0.0040  0.0020  0.0000  0.0000  0.0000  0.0000  0.0000 </r>
       </set>
       <set comment="band 23">
        <r>  0.0011  0.0027  0.0021  0.0011  0.0000  0.0000  0.0000  0.0000  0.0000 </r>
        <r>  0.0011  0.0027  0.0021  0.0011  0.0000  0.0000  0.0000  0.0000  0.0000 </r>
       </set>
       <set comment="band 24">
        <r>  0.0010  0.0186  0.0020  0.0036  0.0000  0.0000  0.0000  0.0000  0.0000 </r>
        <r>  0.0010  0.0186  0.0020  0.0036  0.0000  0.0000  0.0000  0.0000  0.0000 </r>
       </set>
       <set comment="band 25">
        <r>  0.0000  0.0156  0.0038  0.0031  0.0000  0.0000  0.0000  0.0000  0.0000 </r>
        <r>  0.0000  0.0156  0.0038  0.0031  0.0000  0.0000  0.0000  0.0000  0.0000 </r>
       </set>
       <set comment="band 26">
        <r>  0.0638  0.0000  0.0084  0.0000  0.0000  0.0000  0.0000  0.0000  0.0000 </r>
        <r>  0.0638  0.0000  0.0084  0.0000  0.0000  0.0000  0.0000  0.0000  0.0000 </r>
       </set>
       <set comment="band 27">
        <r>  0.0018  0.0068  0.0020  0.0027  0.0000  0.0000  0.0000  0.0000  0.0000 </r>
        <r>  0.0018  0.0068  0.0020  0.0027  0.0000  0.0000  0.0000  0.0000  0.0000 </r>
       </set>
       <set comment="band 28">
        <r>  0.0465  0.0049  0.0036  0.0149  0.0000  0.0000  0.0000  0.0000  0.0000 </r>
        <r>  0.0465  0.0049  0.0036  0.0149  0.0000  0.0000  0.0000  0.0000  0.0000 </r>
       </set>
       <set comment="band 29">
        <r>  0.0027  0.0015  0.0026  0.0004  0.0000  0.0000  0.0000  0.0000  0.0000 </r>
        <r>  0.0027  0.0015  0.0026  0.0004  0.0000  0.0000  0.0000  0.0000  0.0000 </r>
       </set>
       <set comment="band 30">
        <r>  0.0002  0.0171  0.0000  0.0160  0.0000  0.0000  0.0000  0.0000  0.0000 </r>
        <r>  0.0002  0.0171  0.0000  0.0160  0.0000  0.0000  0.0000  0.0000  0.0000 </r>
       </set>
       <set comment="band 31">
        <r>  0.0069  0.0033  0.0074  0.0210  0.0000  0.0000  0.0000  0.0000  0.0000 </r>
        <r>  0.0069  0.0033  0.0074  0.0210  0.0000  0.0000  0.0000  0.0000  0.0000 </r>
       </set>
       <set comment="band 32">
        <r>  0.0037  0.0060  0.0216  0.0005  0.0000  0.0000  0.0000  0.0000  0.0000 </r>
        <r>  0.0037  0.0060  0.0216  0.0005  0.0000  0.0000  0.0000  0.0000  0.0000 </r>
       </set>
       <set comment="band 33">
        <r>  0.0001  0.0049  0.0254  0.0065  0.0000  0.0000  0.0000  0.0000  0.0000 </r>
        <r>  0.0001  0.0049  0.0254  0.0065  0.0000  0.0000  0.0000  0.0000  0.0000 </r>
       </set>
       <set comment="band 34">
        <r>  0.0010  0.0025  0.0062  0.0276  0.0000  0.0000  0.0000  0.0000  0.0000 </r>
        <r>  0.0010  0.0025  0.0062  0.0276  0.0000  0.0000  0.0000  0.0000  0.0000 </r>
       </set>
       <set comment="band 35">
        <r>  0.0003  0.0060  0.0111  0.0215  0.0000  0.0000  0.0000  0.0000  0.0000 </r>
        <r>  0.0003  0.0060  0.0111  0.0215  0.0000  0.0000  0.0000  0.0000  0.0000 </r>
       </set>
       <set comment="band 36">
        <r>  0.0019  0.0010  0.0069  0.0004  0.0000  0.0000  0.0000  0.0000  0.0000 </r>
        <r>  0.0019  0.0010  0.0069  0.0004  0.0000  0.0000  0.0000  0.0000  0.0000 </r>
       </set>
       <set comment="band 37">
        <r>  0.0008  0.0101  0.0001  0.0036  0.0000  0.0000  0.0000  0.0000  0.0000 </r>
        <r>  0.0008  0.0101  0.0001  0.0036  0.0000  0.0000  0.0000  0.0000  0.0000 </r>
       </set>
       <set comment="band 38">
        <r>  0.0052  0.0408  0.0027  0.0001  0.0000  0.0000  0.0000  0.0000  0.0000 </r>
        <r>  0.0052  0.0408  0.0027  0.0001  0.0000  0.0000  0.0000  0.0000  0.0000 </r>
       </set>
       <set comment="band 39">
        <r>  0.0032  0.0144  0.0036  0.0137  0.0000  0.0000  0.0000  0.0000  0.0000 </r>
        <r>  0.0032  0.0144  0.0036  0.0137  0.0000  0.0000  0.0000  0.0000  0.0000 </r>
       </set>
       <set comment="band 40">
        <r>  0.0080  0.0010  0.0028  0.0009  0.0000  0.0000  0.0000  0.0000  0.0000 </r>
        <r>  0.0080  0.0010  0.0028  0.0009  0.0000  0.0000  0.0000  0.0000  0.0000 </r>
       </set>
      </set>
     </set>
    </set>
   </array>
  </projected>
 </calculation>
 <structure name="finalpos" >
  <crystal>
   <varray name="basis" >
    <v>       0.00000000       2.73400000       2.73400000 </v>
    <v>       2.73400000       0.00000000       2.73400000 </v>
    <v>       2.73400000       2.73400000       0.00000000 </v>
   </varray>
   <i name="volume">     40.87196581 </i>
   <varray name="rec_basis" >
    <v>      -0.18288222       0.18288222       0.18288222 </v>
    <v>       0.18288222      -0.18288222       0.18288222 </v>
    <v>       0.18288222       0.18288222      -0.18288222 </v>
   </varray>
  </crystal>
  <varray name="positions" >
   <v>       0.00000000       0.00000000       0.00000000 </v>
   <v>       0.25000000       0.25000000       0.25000000 </v>
  </varray>
 </structure>
</modeling>
